 Gaussian 16, Revision C.01,
 Gaussian 16:  EM64L-G16RevC.01  3-Jul-2019

 ------------------------------
 #p MN15/6-311++G(d,p) opt freq
 ------------------------------

 ---------------
 name file: 3293
 ---------------
 Symbolic Z-matrix:
 Charge =  0 Multiplicity = 1

 SCF Done:  E(RMN15) =  -688.809017831     A.U. after   16 cycles
 SCF Done:  E(RMN15) =  -688.814786833     A.U. after   15 cycles
 SCF Done:  E(RMN15) =  -688.815703511     A.U. after   15 cycles
 SCF Done:  E(RMN15) =  -688.815956274     A.U. after   14 cycles
 SCF Done:  E(RMN15) =  -688.816063432     A.U. after   14 cycles
 SCF Done:  E(RMN15) =  -688.816111857     A.U. after   13 cycles
 SCF Done:  E(RMN15) =  -688.816125522     A.U. after   12 cycles
 SCF Done:  E(RMN15) =  -688.816127496     A.U. after   12 cycles
 SCF Done:  E(RMN15) =  -688.816128011     A.U. after    9 cycles
 SCF Done:  E(RMN15) =  -688.816128083     A.U. after   10 cycles
 Optimization completed.
    -- Stationary point found.
 Normal termination of Gaussian 16 at Wed Dec  6 10:49:26 2023.

 ----------------------------------------------------------------------
 #P Geom=AllCheck Guess=TCheck SCRF=Check GenChk RMN15/6-311++G(d,p) Fr
 eq
 ----------------------------------------------------------------------

 Structure from the checkpoint file:  "/home/exlonk/in_progress/3293.chk"
 ---------------
 name file: 3293
 ---------------
 Charge =  0 Multiplicity = 1

                         Standard orientation:
 ---------------------------------------------------------------------
 Center     Atomic      Atomic             Coordinates (Angstroms)
 Number     Number       Type             X           Y           Z
 ---------------------------------------------------------------------
      1          7           0        1.645342   -0.182984    0.128899
      2          7           0        0.361580    0.220570    0.181401
      3          6           0        2.716223    0.634830    0.353528
      4          6           0        2.083661   -1.493325   -0.131468
      5          6           0        2.536808    2.088864    0.630722
      6          6           0        3.851908   -0.153792    0.231504
      7          6           0        3.469295   -1.475781   -0.069267
      8          6           0       -0.550608   -0.689263   -0.048241
      9          6           0        1.076136   -2.446301   -0.383196
     10          6           0       -0.230792   -2.056091   -0.346109
     11          6           0       -1.959266   -0.221750   -0.007184
     12          6           0        2.118201    2.879615   -0.613797
     13          6           0       -2.997883   -1.089602    0.341726
     14          6           0       -2.262372    1.109690   -0.312108
     15          6           0       -4.313657   -0.637229    0.382206
     16          6           0       -3.576200    1.559448   -0.274467
     17          6           0       -4.607185    0.687118    0.071490
     18          1           0        1.779600    2.212962    1.412077
     19          1           0        3.478492    2.477648    1.026469
     20          1           0        4.861353    0.210191    0.355212
     21          1           0        4.114659   -2.326332   -0.223328
     22          1           0        1.357803   -3.466901   -0.613239
     23          1           0       -1.027753   -2.752311   -0.569283
     24          1           0        2.868689    2.785212   -1.401995
     25          1           0        1.996043    3.939844   -0.380891
     26          1           0        1.168302    2.504039   -1.000964
     27          1           0       -2.778420   -2.117571    0.608760
     28          1           0       -1.453840    1.780232   -0.579732
     29          1           0       -5.108203   -1.319066    0.662913
     30          1           0       -3.798605    2.591763   -0.519581
     31          1           0       -5.632189    1.038608    0.099453
 ---------------------------------------------------------------------

 SCF Done:  E(RMN15) =  -688.816128083     A.U. after    1 cycles

 The electronic state is 1-A.
 Alpha  occ. eigenvalues --  -14.17868 -14.12905 -10.09654 -10.07786 -10.07034
 Alpha  occ. eigenvalues --  -10.06763 -10.05907 -10.05338 -10.05041 -10.04849
 Alpha  occ. eigenvalues --  -10.04782 -10.04690 -10.04558 -10.04202 -10.03312
 Alpha  occ. eigenvalues --  -10.03077 -10.02363  -1.10253  -0.95938  -0.91123
 Alpha  occ. eigenvalues --   -0.87842  -0.83588  -0.81808  -0.79789  -0.78391
 Alpha  occ. eigenvalues --   -0.75586  -0.70560  -0.68081  -0.65963  -0.65034
 Alpha  occ. eigenvalues --   -0.63786  -0.62422  -0.57831  -0.56250  -0.52860
 Alpha  occ. eigenvalues --   -0.52601  -0.51888  -0.49789  -0.49528  -0.48931
 Alpha  occ. eigenvalues --   -0.48288  -0.46792  -0.45883  -0.45868  -0.44383
 Alpha  occ. eigenvalues --   -0.43096  -0.42503  -0.41459  -0.39589  -0.39376
 Alpha  occ. eigenvalues --   -0.38970  -0.38379  -0.38020  -0.36182  -0.33303
 Alpha  occ. eigenvalues --   -0.30621  -0.29549  -0.26247  -0.23213
 Alpha virt. eigenvalues --   -0.03773  -0.00629   0.00848   0.03062   0.03935
 Alpha virt. eigenvalues --    0.03987   0.04628   0.05147   0.05322   0.06231
 Alpha virt. eigenvalues --    0.06676   0.06872   0.07421   0.07779   0.08734

 Mulliken charges:
               1
     1  N    0.370237
     2  N    0.133752
     3  C   -0.026965
     4  C   -0.058145
     5  C   -0.393672
     6  C    0.005026
     7  C   -0.123545
     8  C    0.003814
     9  C   -0.503729
    10  C   -0.239374
    11  C    1.429091
    12  C   -0.336683
    13  C   -0.845643
    14  C   -0.244379
    15  C   -0.396997
    16  C   -0.239704
    17  C   -0.146348
    18  H    0.135407
    19  H    0.130401
    20  H    0.122038
    21  H    0.120332
    22  H    0.156710
    23  H    0.115811
    24  H    0.108498
    25  H    0.121093
    26  H    0.117051
    27  H    0.090145
    28  H   -0.019830
    29  H    0.136763
    30  H    0.155206
    31  H    0.123639
 Sum of Mulliken charges =  -0.00000

 Dipole moment (field-independent basis, Debye):
    X=             -0.6092    Y=             -0.7542    Z=             -0.2454  Tot=              1.0000
 Quadrupole moment (field-independent basis, Debye-Ang):
   XX=            -90.7427   YY=            -89.6349   ZZ=           -106.6180
   XY=              0.8714   XZ=             -0.4798   YZ=              0.4832

  Exact polarizability:     290.496       0.800     198.412       0.966       0.559     110.699
 Approx polarizability:     358.958      10.454     275.765       1.985       2.913     154.904

                      1                      2                      3
                      A                      A                      A
 Frequencies --     42.6479                61.3567                78.8064
 Red. masses --      3.6601                 3.9439                 3.9273
 Frc consts  --      0.0039                 0.0087                 0.0144
 IR Inten    --      0.0418                 0.0668                 0.2522

                      4                      5                      6
                      A                      A                      A
 Frequencies --    110.1950               113.5554               180.2196
 Red. masses --      2.7487                 3.7515                 2.2872
 Frc consts  --      0.0197                 0.0285                 0.0438
 IR Inten    --      0.9128                 2.9200                 0.8346

                      7                      8                      9
                      A                      A                      A
 Frequencies --    192.9709               208.1653               257.8118
 Red. masses --      2.9276                 2.9222                 1.7930
 Frc consts  --      0.0642                 0.0746                 0.0702
 IR Inten    --      1.1526                 1.8800                 0.2882

                     10                     11                     12
                      A                      A                      A
 Frequencies --    291.0126               328.8449               363.1305
 Red. masses --      5.7614                 3.8041                 3.8997
 Frc consts  --      0.2875                 0.2424                 0.3030
 IR Inten    --      0.2650                 2.3696                 0.9694

                     13                     14                     15
                      A                      A                      A
 Frequencies --    409.2987               417.0183               436.6137
 Red. masses --      2.9065                 5.2835                 3.6436
 Frc consts  --      0.2869                 0.5414                 0.4092
 IR Inten    --      0.0731                 0.3385                 0.4201

                     16                     17                     18
                      A                      A                      A
 Frequencies --    491.9605               517.0952               562.5743
 Red. masses --      3.4749                 3.8272                 5.0016
 Frc consts  --      0.4955                 0.6029                 0.9327
 IR Inten    --      3.3786                 5.2901                 7.7109

                     19                     20                     21
                      A                      A                      A
 Frequencies --    598.0488               615.1702               629.7605
 Red. masses --      5.2345                 6.2809                 3.1982
 Frc consts  --      1.1031                 1.4004                 0.7473
 IR Inten    --      0.9904                 0.5823                 0.6473

                     22                     23                     24
                      A                      A                      A
 Frequencies --    663.0029               687.8463               704.1184
 Red. masses --      5.0992                 3.7674                 1.7390
 Frc consts  --      1.3206                 1.0502                 0.5080
 IR Inten    --      2.0714                 2.7932                35.2820

                     25                     26                     27
                      A                      A                      A
 Frequencies --    717.4569               732.4277               764.0109
 Red. masses --      2.2191                 3.7279                 1.6405
 Frc consts  --      0.6730                 1.1783                 0.5642
 IR Inten    --     27.6935                 6.6372                19.6118

                     28                     29                     30
                      A                      A                      A
 Frequencies --    767.1633               790.1547               813.7105
 Red. masses --      1.4664                 2.0090                 4.3499
 Frc consts  --      0.5085                 0.7390                 1.6970
 IR Inten    --      1.4793                47.6159                 8.8641

                     31                     32                     33
                      A                      A                      A
 Frequencies --    823.2002               858.2962               884.5621
 Red. masses --      1.8099                 1.2511                 1.3555
 Frc consts  --      0.7226                 0.5430                 0.6249
 IR Inten    --     26.1483                 0.3776                 0.7728

                     34                     35                     36
                      A                      A                      A
 Frequencies --    919.4338               942.9218               957.7899
 Red. masses --      4.8511                 1.4478                 1.9690
 Frc consts  --      2.4162                 0.7584                 1.0642
 IR Inten    --     16.1772                 0.8742                 8.3729

                     37                     38                     39
                      A                      A                      A
 Frequencies --    987.3278               997.7680              1003.5504
 Red. masses --      1.3094                 1.4007                 5.0674
 Frc consts  --      0.7520                 0.8216                 3.0068
 IR Inten    --      1.0358                 0.9614                 0.8832

                     40                     41                     42
                      A                      A                      A
 Frequencies --   1017.0884              1030.8636              1045.2724
 Red. masses --      1.3099                 1.5478                 1.4093
 Frc consts  --      0.7984                 0.9691                 0.9072
 IR Inten    --      0.1306                33.9183                 9.2259

                     43                     44                     45
                      A                      A                      A
 Frequencies --   1048.3822              1076.2120              1080.7694
 Red. masses --      2.8737                 2.1651                 1.9939
 Frc consts  --      1.8609                 1.4775                 1.3722
 IR Inten    --     11.4534                 5.7997                 4.5277

                     46                     47                     48
                      A                      A                      A
 Frequencies --   1103.1800              1121.2082              1144.1331
 Red. masses --      1.5209                 2.4520                 1.2723
 Frc consts  --      1.0906                 1.8161                 0.9813
 IR Inten    --      3.8033                 1.1807                 7.3659

                     49                     50                     51
                      A                      A                      A
 Frequencies --   1164.3180              1189.6760              1217.5982
 Red. masses --      1.1024                 1.1202                 1.3955
 Frc consts  --      0.8805                 0.9341                 1.2190
 IR Inten    --      0.1272                 5.9800                 2.9190

                     52                     53                     54
                      A                      A                      A
 Frequencies --   1257.5266              1287.9812              1305.2337
 Red. masses --      1.7822                 1.6553                 2.6752
 Frc consts  --      1.6605                 1.6178                 2.6852
 IR Inten    --      2.8277                 3.7651                 2.8078

                     55                     56                     57
                      A                      A                      A
 Frequencies --   1329.6937              1337.2471              1343.3958
 Red. masses --      1.9671                 3.4425                 1.9152
 Frc consts  --      2.0492                 3.6270                 2.0365
 IR Inten    --     60.1270               113.5301                28.3248

                     58                     59                     60
                      A                      A                      A
 Frequencies --   1347.6656              1370.1775              1391.0937
 Red. masses --      2.8169                 3.6116                 1.2757
 Frc consts  --      3.0143                 3.9949                 1.4545
 IR Inten    --     32.5650                 2.8950                 5.9175

                     61                     62                     63
                      A                      A                      A
 Frequencies --   1427.0732              1453.8084              1473.4151
 Red. masses --      3.7178                 1.1504                 2.4697
 Frc consts  --      4.4609                 1.4325                 3.1590
 IR Inten    --     28.4995                 4.2488                 3.9705

                     64                     65                     66
                      A                      A                      A
 Frequencies --   1479.1084              1486.1996              1490.2181
 Red. masses --      1.0511                 2.0465                 1.3503
 Frc consts  --      1.3549                 2.6633                 1.7668
 IR Inten    --      4.4925                 6.3581                13.9603

                     67                     68                     69
                      A                      A                      A
 Frequencies --   1531.7116              1540.8294              1575.2261
 Red. masses --      2.9252                 7.5888                 6.9050
 Frc consts  --      4.0435                10.6153                10.0948
 IR Inten    --      6.7884                 6.0957                29.0059

                     70                     71                     72
                      A                      A                      A
 Frequencies --   1603.3830              1643.9456              1667.9569
 Red. masses --      5.9963                 6.3441                 6.3141
 Frc consts  --      9.0826                10.1017                10.3497
 IR Inten    --     33.0694                 3.4547                 0.1667

                     73                     74                     75
                      A                      A                      A
 Frequencies --   1685.3527              3062.5136              3066.9100
 Red. masses --      8.2677                 1.0372                 1.0600
 Frc consts  --     13.8362                 5.7314                 5.8741
 IR Inten    --     44.7960                34.9771                27.6246

                     76                     77                     78
                      A                      A                      A
 Frequencies --   3113.7613              3140.0275              3146.3991
 Red. masses --      1.1006                 1.1027                 1.1029
 Frc consts  --      6.2868                 6.4055                 6.4332
 IR Inten    --      7.8878                37.2224                36.6881

                     79                     80                     81
                      A                      A                      A
 Frequencies --   3200.4942              3207.0985              3216.1312
 Red. masses --      1.0850                 1.0879                 1.0917
 Frc consts  --      6.5483                 6.5927                 6.6533
 IR Inten    --      2.9751                 2.2572                17.1331

                     82                     83                     84
                      A                      A                      A
 Frequencies --   3224.2469              3225.1678              3231.3116
 Red. masses --      1.0922                 1.0918                 1.0985
 Frc consts  --      6.6899                 6.6910                 6.7578
 IR Inten    --     15.5073                 6.6487                18.2454

                     85                     86                     87
                      A                      A                      A
 Frequencies --   3247.5217              3260.8819              3280.8347
 Red. masses --      1.0951                 1.0927                 1.1006
 Frc consts  --      6.8046                 6.8456                 6.9802
 IR Inten    --      4.4811                 6.6068                 4.5950

 - Thermochemistry -
 -------------------
 Temperature   298.150 Kelvin.  Pressure   1.00000 Atm.
 Atom     1 has atomic number  7 and mass  14.00307

 Molecular mass:   222.11570 amu.
 Principal axes and moments of inertia in atomic units:
                           1         2         3
     Eigenvalues --  1860.759176014.033637664.67081
           X            0.99991   0.01305  -0.00136
           Y           -0.01306   0.99990  -0.00527
           Z            0.00129   0.00528   0.99999
 This molecule is an asymmetric top.
 Rotational symmetry number  1.
 Warning -- assumption of classical behavior for rotation
           may cause significant error
 Rotational temperatures (Kelvin)      0.04655     0.01440     0.01130
 Rotational constants (GHZ):           0.96990     0.30009     0.23546
 Zero-point vibrational energy     668779.8 (Joules/Mol)
                                  159.84220 (Kcal/Mol)
 Warning -- explicit consideration of  20 degrees of freedom as
           vibrations may cause significant error
 Vibrational temperatures:     61.36    88.28   113.38   158.55   163.38
          (Kelvin)            259.30   277.64   299.50   370.93   418.70
                              473.13   522.46   588.89   600.00   628.19
                              707.82   743.98   809.42   860.46   885.09
                              906.08   953.91   989.66  1013.07  1032.26
                             1053.80  1099.24  1103.78  1136.86  1170.75
                             1184.40  1234.90  1272.69  1322.86  1356.65
                             1378.05  1420.54  1435.57  1443.89  1463.36
                             1483.18  1503.91  1508.39  1548.43  1554.99
                             1587.23  1613.17  1646.15  1675.19  1711.68
                             1751.85  1809.30  1853.12  1877.94  1913.13
                             1924.00  1932.85  1938.99  1971.38  2001.47
                             2053.24  2091.71  2119.92  2128.11  2138.31
                             2144.09  2203.79  2216.91  2266.40  2306.91
                             2365.27  2399.82  2424.85  4406.27  4412.60
                             4480.01  4517.80  4526.97  4604.80  4614.30
                             4627.30  4638.97  4640.30  4649.14  4672.46
                             4691.68  4720.39

 Zero-point correction=                           0.254725 (Hartree/Particle)
 Thermal correction to Energy=                    0.268512
 Thermal correction to Enthalpy=                  0.269456
 Thermal correction to Gibbs Free Energy=         0.213678
 Sum of electronic and zero-point Energies=           -688.561403
 Sum of electronic and thermal Energies=              -688.547616
 Sum of electronic and thermal Enthalpies=            -688.546672
 Sum of electronic and thermal Free Energies=         -688.602450

                     E (Thermal)             CV                S
                      KCal/Mol        Cal/Mol-Kelvin    Cal/Mol-Kelvin
 Total                  168.494             55.278            117.395
 Electronic               0.000              0.000              0.000
 Translational            0.889              2.981             42.097
 Rotational               0.889              2.981             32.817
 Vibrational            166.716             49.317             42.482
 Vibration     1          0.595              1.980              5.132
 Vibration     2          0.597              1.973              4.413
 Vibration     3          0.600              1.963              3.920
 Vibration     4          0.606              1.941              3.265
 Vibration     5          0.607              1.938              3.207
 Vibration     6          0.629              1.867              2.326
 Vibration     7          0.635              1.850              2.199
 Vibration     8          0.641              1.828              2.060
 Vibration     9          0.667              1.750              1.677
 Vibration    10          0.687              1.690              1.468
 Vibration    11          0.712              1.618              1.266
 Vibration    12          0.737              1.548              1.109
 Vibration    13          0.774              1.450              0.929
 Vibration    14          0.780              1.433              0.902
 Vibration    15          0.797              1.390              0.837
 Vibration    16          0.848              1.268              0.679
 Vibration    17          0.872              1.212              0.617
 Vibration    18          0.918              1.112              0.519
 Vibration    19          0.956              1.036              0.453
 Vibration    20          0.975              1.000              0.424

 Optimization completed.
    -- Stationary point found.
 Normal termination of Gaussian 16 at Wed Dec  6 11:11:44 2023.
