 Gaussian 16, Revision C.01,
 Gaussian 16:  EM64L-G16RevC.01  3-Jul-2019

 ------------------------------
 #p MN15/6-311++G(d,p) opt freq
 ------------------------------

 ---------------
 name file: 3298
 ---------------
 Symbolic Z-matrix:
 Charge =  0 Multiplicity = 1

 SCF Done:  E(RMN15) =  -1397.24925291     A.U. after   18 cycles
 SCF Done:  E(RMN15) =  -1397.26101219     A.U. after   18 cycles
 SCF Done:  E(RMN15) =  -1397.26278779     A.U. after   18 cycles
 SCF Done:  E(RMN15) =  -1397.26407860     A.U. after   15 cycles
 SCF Done:  E(RMN15) =  -1397.26466536     A.U. after   15 cycles
 SCF Done:  E(RMN15) =  -1397.26498911     A.U. after   15 cycles
 SCF Done:  E(RMN15) =  -1397.26511447     A.U. after   14 cycles
 SCF Done:  E(RMN15) =  -1397.26520117     A.U. after   13 cycles
 SCF Done:  E(RMN15) =  -1397.26524217     A.U. after   13 cycles
 SCF Done:  E(RMN15) =  -1397.26526977     A.U. after   12 cycles
 SCF Done:  E(RMN15) =  -1397.26535454     A.U. after   13 cycles
 SCF Done:  E(RMN15) =  -1397.26537558     A.U. after   12 cycles
 SCF Done:  E(RMN15) =  -1397.26538048     A.U. after   12 cycles
 SCF Done:  E(RMN15) =  -1397.26538288     A.U. after   11 cycles
 SCF Done:  E(RMN15) =  -1397.26538393     A.U. after   10 cycles
 SCF Done:  E(RMN15) =  -1397.26538442     A.U. after   10 cycles
 SCF Done:  E(RMN15) =  -1397.26538474     A.U. after   11 cycles
 SCF Done:  E(RMN15) =  -1397.26538498     A.U. after   10 cycles
 SCF Done:  E(RMN15) =  -1397.26538512     A.U. after    9 cycles
 Optimization completed.
    -- Stationary point found.
 Normal termination of Gaussian 16 at Tue Dec  5 17:32:36 2023.

 ----------------------------------------------------------------------
 #P Geom=AllCheck Guess=TCheck SCRF=Check GenChk RMN15/6-311++G(d,p) Fr
 eq
 ----------------------------------------------------------------------

 Structure from the checkpoint file:  "/home/exlonk/in_progress/3298.chk"
 ---------------
 name file: 3298
 ---------------
 Charge =  0 Multiplicity = 1

                         Standard orientation:
 ---------------------------------------------------------------------
 Center     Atomic      Atomic             Coordinates (Angstroms)
 Number     Number       Type             X           Y           Z
 ---------------------------------------------------------------------
      1          6           0       -6.101456    1.407533    1.025903
      2          6           0       -4.684541    1.242302    0.541816
      3          6           0       -3.621479    1.743954    1.339161
      4          6           0       -2.293875    1.648190    0.973496
      5          6           0       -2.041324    1.018421   -0.248889
      6          6           0       -3.064264    0.507721   -1.048717
      7          6           0       -4.406569    0.618203   -0.659907
      8          7           0       -2.499184   -0.069830   -2.168084
      9          7           0       -1.231058    0.056675   -2.106092
     10          7           0       -0.904122    0.722679   -0.958407
     11          6           0        0.426459    0.895287   -0.589561
     12          6           0        1.046325    2.063810   -0.213750
     13          6           0        0.464379    3.354697   -0.162029
     14          7           0        0.042341    4.429643   -0.088666
     15          6           0        2.405910    1.712720    0.077264
     16          6           0        3.573377    2.398094    0.474631
     17          7           0        3.590324    3.728492    0.723004
     18          7           0        4.712934    1.715642    0.615702
     19          6           0        4.701663    0.401213    0.367181
     20          7           0        3.677233   -0.352350   -0.012670
     21          6           0        2.540143    0.338089   -0.142089
     22          7           0        1.308590   -0.161587   -0.534363
     23          6           0        0.897283   -1.544388   -0.771307
     24          6           0        1.891176   -2.624441   -0.377608
     25          6           0        0.947651   -3.813059   -0.280821
     26          8           0        0.701915   -4.254337   -1.602663
     27          6           0       -0.296058   -3.179627    0.355263
     28          6           0       -0.333395   -3.350087    1.861909
     29          8           0       -0.572859   -4.722055    2.106792
     30          8           0       -0.226568   -1.787192    0.061190
     31          1           0       -6.241442    0.938002    2.003150
     32          1           0       -6.809838    0.956337    0.329600
     33          1           0       -6.359152    2.464650    1.131666
     34          1           0       -3.873246    2.229315    2.277108
     35          1           0       -1.499193    2.045903    1.592692
     36          1           0       -5.195187    0.222136   -1.289374
     37          1           0        4.473343    4.151748    0.967284
     38          1           0        2.776950    4.311613    0.591741
     39          1           0        5.652649   -0.107874    0.490243
     40          1           0        0.602282   -1.640335   -1.819392
     41          1           0        2.326203   -2.395542    0.596055
     42          1           0        2.690086   -2.780055   -1.098628
     43          1           0        1.338357   -4.620418    0.346413
     44          1           0        0.038962   -4.953692   -1.594929
     45          1           0       -1.208218   -3.606767   -0.076690
     46          1           0        0.627089   -3.022248    2.284464
     47          1           0       -1.125458   -2.712168    2.268997
     48          1           0       -0.621923   -4.889267    3.052410
 ---------------------------------------------------------------------

 SCF Done:  E(RMN15) =  -1397.26538512     A.U. after    1 cycles

 The electronic state is 1-A.
 Alpha  occ. eigenvalues --  -18.82979 -18.82402 -18.81642 -14.19547 -14.17613
 Alpha  occ. eigenvalues --  -14.17439 -14.13106 -14.12426 -14.10741 -14.09706
 Alpha  occ. eigenvalues --  -14.09169 -10.16298 -10.15333 -10.15232 -10.13908
 Alpha  occ. eigenvalues --  -10.11875 -10.10813 -10.10645 -10.10326 -10.10186
 Alpha  occ. eigenvalues --  -10.10074 -10.09773 -10.07991 -10.07489 -10.06759
 Alpha  occ. eigenvalues --  -10.06577 -10.06100 -10.05825 -10.05279 -10.04331
 Alpha  occ. eigenvalues --   -1.16779  -1.13106  -1.09175  -1.08656  -1.07745
 Alpha  occ. eigenvalues --   -1.04508  -0.99901  -0.98081  -0.96867  -0.93067
 Alpha  occ. eigenvalues --   -0.91998  -0.90179  -0.85060  -0.84462  -0.82574
 Alpha  occ. eigenvalues --   -0.82518  -0.81253  -0.76313  -0.74995  -0.74345
 Alpha  occ. eigenvalues --   -0.72149  -0.69735  -0.69207  -0.67527  -0.66846
 Alpha  occ. eigenvalues --   -0.65771  -0.64628  -0.62948  -0.61063  -0.60873
 Alpha  occ. eigenvalues --   -0.59319  -0.58931  -0.57515  -0.57120  -0.56655
 Alpha  occ. eigenvalues --   -0.55480  -0.54655  -0.53898  -0.53166  -0.52400
 Alpha  occ. eigenvalues --   -0.51514  -0.51127  -0.50094  -0.49750  -0.49500
 Alpha  occ. eigenvalues --   -0.49081  -0.47891  -0.47418  -0.46647  -0.46216
 Alpha  occ. eigenvalues --   -0.44442  -0.44062  -0.43639  -0.43162  -0.42957
 Alpha  occ. eigenvalues --   -0.42140  -0.41596  -0.41459  -0.41184  -0.40783
 Alpha  occ. eigenvalues --   -0.40226  -0.39895  -0.39451  -0.38157  -0.37887
 Alpha  occ. eigenvalues --   -0.35314  -0.35109  -0.33638  -0.33295  -0.32782
 Alpha  occ. eigenvalues --   -0.32437  -0.31969  -0.31518  -0.29629  -0.28475
 Alpha  occ. eigenvalues --   -0.26294
 Alpha virt. eigenvalues --   -0.04613  -0.02551  -0.00032   0.01067   0.01907
 Alpha virt. eigenvalues --    0.02098   0.03016   0.03259   0.03373   0.04054
 Alpha virt. eigenvalues --    0.04292   0.04538   0.04848   0.05395   0.05787

 Mulliken charges:
               1
     1  C   -0.369730
     2  C    0.431620
     3  C   -0.499488
     4  C   -0.139135
     5  C    0.152569
     6  C   -0.318352
     7  C   -0.448930
     8  N   -0.066445
     9  N   -0.031978
    10  N    0.324101
    11  C   -0.003631
    12  C    0.957313
    13  C   -0.744912
    14  N   -0.220306
    15  C    0.058373
    16  C   -0.143126
    17  N   -0.321523
    18  N   -0.167957
    19  C   -0.079075
    20  N   -0.064912
    21  C   -0.254948
    22  N    0.476714
    23  C   -0.556955
    24  C   -0.150374
    25  C   -0.537281
    26  O   -0.229875
    27  C   -0.198951
    28  C   -0.077202
    29  O   -0.269326
    30  O    0.090337
    31  H    0.133127
    32  H    0.133719
    33  H    0.137573
    34  H    0.158161
    35  H    0.087305
    36  H    0.144574
    37  H    0.290125
    38  H    0.279582
    39  H    0.179187
    40  H    0.285169
    41  H    0.131265
    42  H    0.218634
    43  H    0.217196
    44  H    0.263312
    45  H    0.209113
    46  H    0.118315
    47  H    0.140438
    48  H    0.276589
 Sum of Mulliken charges =  -0.00000

 Dipole moment (field-independent basis, Debye):
    X=             -0.8068    Y=             -2.0626    Z=              5.3262  Tot=              5.7684
 Quadrupole moment (field-independent basis, Debye-Ang):
   XX=           -163.2577   YY=           -171.8952   ZZ=           -173.8777
   XY=              5.7958   XZ=             -6.0755   YZ=             -4.2279

  Exact polarizability:     367.018       5.770     296.151       1.608      28.830     210.695
 Approx polarizability:     434.229      -0.250     391.576       9.251      58.513     313.782

                      1                      2                      3
                      A                      A                      A
 Frequencies --     14.8051                21.5752                31.5347
 Red. masses --      5.3311                 5.7570                 6.6741
 Frc consts  --      0.0007                 0.0016                 0.0039
 IR Inten    --      0.2997                 0.2364                 0.4232

                      4                      5                      6
                      A                      A                      A
 Frequencies --     45.5377                56.4311                65.7375
 Red. masses --      5.8065                 4.7349                 6.3225
 Frc consts  --      0.0071                 0.0089                 0.0161
 IR Inten    --      0.5645                 1.7885                 0.6653

                      7                      8                      9
                      A                      A                      A
 Frequencies --     79.3234                83.2998                91.5502
 Red. masses --      1.5805                 2.4060                 6.2320
 Frc consts  --      0.0059                 0.0098                 0.0308
 IR Inten    --      1.2554                 1.9447                 0.5412

                     10                     11                     12
                      A                      A                      A
 Frequencies --    108.2883               116.7268               125.7214
 Red. masses --      7.0137                 4.2044                 5.0862
 Frc consts  --      0.0485                 0.0338                 0.0474
 IR Inten    --      1.1526                 7.1972                 1.6737

                     13                     14                     15
                      A                      A                      A
 Frequencies --    138.3003               162.5778               186.4942
 Red. masses --      5.3241                 5.0994                 7.1246
 Frc consts  --      0.0600                 0.0794                 0.1460
 IR Inten    --      2.9524                 9.7735                 3.4874

                     16                     17                     18
                      A                      A                      A
 Frequencies --    209.3786               213.8668               229.6457
 Red. masses --      1.8991                 5.8339                 7.7469
 Frc consts  --      0.0491                 0.1572                 0.2407
 IR Inten    --     39.4730                 1.7937                 0.6400

                     19                     20                     21
                      A                      A                      A
 Frequencies --    238.4856               250.5619               268.0499
 Red. masses --      1.6202                 4.6012                 4.5377
 Frc consts  --      0.0543                 0.1702                 0.1921
 IR Inten    --     51.0952                11.7242                 2.4527

                     22                     23                     24
                      A                      A                      A
 Frequencies --    276.4983               277.8609               289.1773
 Red. masses --      1.4667                 1.8337                 3.7200
 Frc consts  --      0.0661                 0.0834                 0.1833
 IR Inten    --    113.7583                57.7950                 6.2209

                     25                     26                     27
                      A                      A                      A
 Frequencies --    298.7981               310.3665               325.1617
 Red. masses --      3.4397                 1.6165                 4.8237
 Frc consts  --      0.1809                 0.0917                 0.3005
 IR Inten    --     27.3434               125.2669                18.6849

                     28                     29                     30
                      A                      A                      A
 Frequencies --    341.5322               378.3685               402.8975
 Red. masses --      4.7228                 4.9579                 5.9734
 Frc consts  --      0.3246                 0.4182                 0.5713
 IR Inten    --      1.4593                 1.9174                 2.6362

                     31                     32                     33
                      A                      A                      A
 Frequencies --    432.6887               434.5173               460.6255
 Red. masses --      2.4900                 2.9104                 7.4029
 Frc consts  --      0.2747                 0.3238                 0.9254
 IR Inten    --     17.0686                 3.3046                 1.8092

                     34                     35                     36
                      A                      A                      A
 Frequencies --    463.9833               475.3754               487.9985
 Red. masses --      5.8187                 6.0142                 5.7446
 Frc consts  --      0.7380                 0.8008                 0.8060
 IR Inten    --     10.3291                 3.5095                 1.4946

                     37                     38                     39
                      A                      A                      A
 Frequencies --    501.8308               515.4712               524.0812
 Red. masses --      3.1922                 2.1636                 2.7532
 Frc consts  --      0.4736                 0.3387                 0.4455
 IR Inten    --      4.2319                 1.6216                 0.9133

                     40                     41                     42
                      A                      A                      A
 Frequencies --    532.0841               563.5343               589.5386
 Red. masses --      2.2489                 4.6785                 4.4724
 Frc consts  --      0.3751                 0.8754                 0.9158
 IR Inten    --      2.1322                20.2483                 7.5041

                     43                     44                     45
                      A                      A                      A
 Frequencies --    590.1155               596.5266               617.9782
 Red. masses --      4.2775                 5.4768                 6.0190
 Frc consts  --      0.8776                 1.1482                 1.3543
 IR Inten    --      3.7671                10.7077                 2.0233

                     46                     47                     48
                      A                      A                      A
 Frequencies --    674.6168               687.6468               696.8542
 Red. masses --      9.0681                 9.0930                 7.9345
 Frc consts  --      2.4315                 2.5333                 2.2701
 IR Inten    --      3.7258                 0.9520                 3.4052

                     49                     50                     51
                      A                      A                      A
 Frequencies --    735.0205               750.3349               755.1479
 Red. masses --      9.5950                 7.1436                 5.4669
 Frc consts  --      3.0542                 2.3696                 1.8368
 IR Inten    --     10.1064                 1.5527                 7.8889

                     52                     53                     54
                      A                      A                      A
 Frequencies --    764.6244               766.8320               808.7240
 Red. masses --      5.9604                 5.0705                 6.9904
 Frc consts  --      2.0531                 1.7567                 2.6937
 IR Inten    --      5.9923                 0.3506                10.1942

                     55                     56                     57
                      A                      A                      A
 Frequencies --    811.0928               814.1324               855.6045
 Red. masses --      9.3915                 1.4131                 3.5252
 Frc consts  --      3.6402                 0.5518                 1.5205
 IR Inten    --      4.6529                27.4102                14.8012

                     58                     59                     60
                      A                      A                      A
 Frequencies --    865.5098               885.1823               898.5588
 Red. masses --      5.6480                 3.1853                 1.3903
 Frc consts  --      2.4928                 1.4705                 0.6614
 IR Inten    --     21.0433                 7.6252                 6.8543

                     61                     62                     63
                      A                      A                      A
 Frequencies --    910.2013               951.9090               957.9839
 Red. masses --      2.4858                 2.7286                 2.7330
 Frc consts  --      1.2133                 1.4568                 1.4778
 IR Inten    --      5.7085                 0.4991                22.0320

                     64                     65                     66
                      A                      A                      A
 Frequencies --    978.3557               988.0868               993.4806
 Red. masses --      1.3240                 1.4547                 1.8009
 Frc consts  --      0.7467                 0.8368                 1.0473
 IR Inten    --      0.2262                 3.2471                12.9164

                     67                     68                     69
                      A                      A                      A
 Frequencies --   1006.6264              1009.5801              1022.2788
 Red. masses --      2.4615                 1.6197                 3.0834
 Frc consts  --      1.4695                 0.9727                 1.8985
 IR Inten    --     17.9031                 2.4503                10.2104

                     70                     71                     72
                      A                      A                      A
 Frequencies --   1043.2351              1052.7498              1058.0072
 Red. masses --      1.9544                 1.5462                 2.2308
 Frc consts  --      1.2532                 1.0097                 1.4713
 IR Inten    --     31.2119                 3.0514                50.5343

                     73                     74                     75
                      A                      A                      A
 Frequencies --   1080.4590              1098.5742              1116.0761
 Red. masses --      4.1922                 1.9464                 6.5643
 Frc consts  --      2.8835                 1.3840                 4.8175
 IR Inten    --     13.6979                75.6084               124.8711

                     76                     77                     78
                      A                      A                      A
 Frequencies --   1120.9904              1142.7252              1151.6985
 Red. masses --      4.4970                 2.3155                 1.4409
 Frc consts  --      3.3295                 1.7814                 1.1260
 IR Inten    --    154.1959                29.6304                25.3764

                     79                     80                     81
                      A                      A                      A
 Frequencies --   1160.3217              1166.9607              1175.7980
 Red. masses --      2.6981                 2.0947                 1.9007
 Frc consts  --      2.1403                 1.6807                 1.5482
 IR Inten    --    140.8852                 3.5107               100.3834

                     82                     83                     84
                      A                      A                      A
 Frequencies --   1197.9563              1200.7855              1219.3118
 Red. masses --      2.5011                 1.4435                 1.5125
 Frc consts  --      2.1148                 1.2263                 1.3249
 IR Inten    --     12.8706                11.1525                16.5974

                     85                     86                     87
                      A                      A                      A
 Frequencies --   1237.2096              1245.1821              1283.1153
 Red. masses --      1.2348                 4.0728                 1.9037
 Frc consts  --      1.1136                 3.7205                 1.8466
 IR Inten    --     10.8870                35.7192                14.5106

                     88                     89                     90
                      A                      A                      A
 Frequencies --   1287.6636              1294.8942              1305.4053
 Red. masses --      2.6772                 1.8513                 1.4020
 Frc consts  --      2.6154                 1.8290                 1.4076
 IR Inten    --     11.9742                 8.7643                 3.0195

                     91                     92                     93
                      A                      A                      A
 Frequencies --   1316.3817              1331.9031              1343.4872
 Red. masses --      3.2665                 1.2911                 2.9413
 Frc consts  --      3.3350                 1.3495                 3.1279
 IR Inten    --     62.5671                10.9804                58.3814

                     94                     95                     96
                      A                      A                      A
 Frequencies --   1352.8752              1360.0379              1379.0504
 Red. masses --      1.7134                 3.8034                 1.6249
 Frc consts  --      1.8476                 4.1450                 1.8207
 IR Inten    --     13.0469                54.0808                22.0311

                     97                     98                     99
                      A                      A                      A
 Frequencies --   1381.9746              1390.3059              1403.5426
 Red. masses --      1.5852                 5.3976                 1.3708
 Frc consts  --      1.7838                 6.1472                 1.5910
 IR Inten    --     25.4541                48.9483                 2.3883

                    100                    101                    102
                      A                      A                      A
 Frequencies --   1408.5090              1413.9674              1418.8070
 Red. masses --      1.9401                 4.1477                 1.6065
 Frc consts  --      2.2678                 4.8858                 1.9054
 IR Inten    --     66.5183                14.5062                 2.2346

                    103                    104                    105
                      A                      A                      A
 Frequencies --   1434.9194              1442.8469              1451.8283
 Red. masses --      3.6657                 1.5923                 1.3998
 Frc consts  --      4.4469                 1.9531                 1.7384
 IR Inten    --     45.5861                 1.4540                 1.5334

                    106                    107                    108
                      A                      A                      A
 Frequencies --   1467.3104              1468.9900              1473.5850
 Red. masses --      5.0676                 1.0427                 1.5318
 Frc consts  --      6.4283                 1.3257                 1.9598
 IR Inten    --    104.6413                 7.6128                 1.0207

                    109                    110                    111
                      A                      A                      A
 Frequencies --   1495.7288              1501.6958              1511.0022
 Red. masses --      2.9399                 1.0857                 5.2674
 Frc consts  --      3.8751                 1.4425                 7.0856
 IR Inten    --     26.4869                 8.2596               100.0701

                    112                    113                    114
                      A                      A                      A
 Frequencies --   1520.9189              1550.3529              1613.6346
 Red. masses --      2.7310                 5.6173                 1.9266
 Frc consts  --      3.7220                 7.9550                 2.9557
 IR Inten    --     21.9003                99.0525                 5.7410

                    115                    116                    117
                      A                      A                      A
 Frequencies --   1640.7088              1654.2412              1662.2019
 Red. masses --      9.1184                 8.4803                 7.8321
 Frc consts  --     14.4622                13.6728                12.7496
 IR Inten    --    151.9101                72.7244               132.7868

                    118                    119                    120
                      A                      A                      A
 Frequencies --   1669.8254              1692.0471              2358.5405
 Red. masses --      6.3186                 7.8094                12.6541
 Frc consts  --     10.3804                13.1733                41.4733
 IR Inten    --    809.7547                 2.6484                88.7885

                    121                    122                    123
                      A                      A                      A
 Frequencies --   3024.3816              3062.0446              3070.8584
 Red. masses --      1.0621                 1.0371                 1.0848
 Frc consts  --      5.7237                 5.7294                 6.0273
 IR Inten    --     32.4459                37.0928                38.8084

                    124                    125                    126
                      A                      A                      A
 Frequencies --   3088.9296              3090.4986              3115.6138
 Red. masses --      1.0995                 1.0876                 1.0829
 Frc consts  --      6.1811                 6.1202                 6.1936
 IR Inten    --     31.1779                31.7937                 2.1164

                    127                    128                    129
                      A                      A                      A
 Frequencies --   3125.1732              3130.1629              3151.6041
 Red. masses --      1.1010                 1.0664                 1.1016
 Frc consts  --      6.3357                 6.1558                 6.4467
 IR Inten    --     14.5495                 8.2406                15.7572

                    130                    131                    132
                      A                      A                      A
 Frequencies --   3197.6251              3199.4205              3209.0326
 Red. masses --      1.0890                 1.1038                 1.0911
 Frc consts  --      6.5607                 6.6574                 6.6199
 IR Inten    --      9.9357                 3.9833                23.6651

                    133                    134                    135
                      A                      A                      A
 Frequencies --   3222.5453              3232.9870              3624.6860
 Red. masses --      1.0923                 1.0947                 1.0454
 Frc consts  --      6.6834                 6.7416                 8.0924
 IR Inten    --      7.5036                 2.6480               105.4282

                    136                    137                    138
                      A                      A                      A
 Frequencies --   3759.0886              3904.1806              3934.9876
 Red. masses --      1.1064                 1.0665                 1.0670
 Frc consts  --      9.2113                 9.5782                 9.7338
 IR Inten    --     87.9277                52.5145                70.5969

 - Thermochemistry -
 -------------------
 Temperature   298.150 Kelvin.  Pressure   1.00000 Atm.
 Atom     1 has atomic number  6 and mass  12.00000

 Molecular mass:   406.15019 amu.
 Principal axes and moments of inertia in atomic units:
                           1         2         3
     Eigenvalues --  ******************************
           X            0.99946  -0.03172  -0.00884
           Y            0.03173   0.99950   0.00131
           Z            0.00880  -0.00159   0.99996
 This molecule is an asymmetric top.
 Rotational symmetry number  1.
 Warning -- assumption of classical behavior for rotation
           may cause significant error
 Rotational temperatures (Kelvin)      0.00864     0.00691     0.00447
 Rotational constants (GHZ):           0.18009     0.14404     0.09312
 Zero-point vibrational energy     974402.9 (Joules/Mol)
                                  232.88789 (Kcal/Mol)
 Warning -- explicit consideration of  45 degrees of freedom as
           vibrations may cause significant error
 Vibrational temperatures:     21.30    31.04    45.37    65.52    81.19
          (Kelvin)             94.58   114.13   119.85   131.72   155.80
                              167.94   180.89   198.98   233.91   268.32
                              301.25   307.71   330.41   343.13   360.50
                              385.66   397.82   399.78   416.06   429.90
                              446.55   467.84   491.39   544.39   579.68
                              622.54   625.17   662.74   667.57   683.96
                              702.12   722.02   741.65   754.04   765.55
                              810.80   848.21   849.04   858.27   889.13
                              970.62   989.37  1002.62  1057.53  1079.56
                             1086.49  1100.12  1103.30  1163.57  1166.98
                             1171.35  1231.02  1245.28  1273.58  1292.83
                             1309.58  1369.58  1378.33  1407.64  1421.64
                             1429.40  1448.31  1452.56  1470.83  1500.98
                             1514.67  1522.24  1554.54  1580.60  1605.78
                             1612.86  1644.13  1657.04  1669.44  1679.00
                             1691.71  1723.59  1727.66  1754.32  1780.07
                             1791.54  1846.12  1852.66  1863.06  1878.19
                             1893.98  1916.31  1932.98  1946.49  1956.79
                             1984.15  1988.35  2000.34  2019.38  2026.53
                             2034.38  2041.35  2064.53  2075.93  2088.86
                             2111.13  2113.55  2120.16  2152.02  2160.61
                             2174.00  2188.26  2230.61  2321.66  2360.61
                             2380.08  2391.54  2402.51  2434.48  3393.41
                             4351.41  4405.60  4418.28  4444.28  4446.54
                             4482.67  4496.43  4503.61  4534.46  4600.67
                             4603.25  4617.08  4636.52  4651.55  5215.11
                             5408.49  5617.25  5661.57

 Zero-point correction=                           0.371130 (Hartree/Particle)
 Thermal correction to Energy=                    0.397427
 Thermal correction to Enthalpy=                  0.398371
 Thermal correction to Gibbs Free Energy=         0.312900
 Sum of electronic and zero-point Energies=          -1396.894255
 Sum of electronic and thermal Energies=             -1396.867958
 Sum of electronic and thermal Enthalpies=           -1396.867014
 Sum of electronic and thermal Free Energies=        -1396.952485

                     E (Thermal)             CV                S
                      KCal/Mol        Cal/Mol-Kelvin    Cal/Mol-Kelvin
 Total                  249.389             99.889            179.890
 Electronic               0.000              0.000              0.000
 Translational            0.889              2.981             43.896
 Rotational               0.889              2.981             36.141
 Vibrational            247.612             93.928             99.854
 Vibration     1          0.593              1.986              7.232
 Vibration     2          0.593              1.985              6.484
 Vibration     3          0.594              1.983              5.730
 Vibration     4          0.595              1.979              5.002
 Vibration     5          0.596              1.975              4.578
 Vibration     6          0.597              1.971              4.277
 Vibration     7          0.600              1.963              3.908
 Vibration     8          0.600              1.961              3.812
 Vibration     9          0.602              1.955              3.627
 Vibration    10          0.606              1.943              3.299
 Vibration    11          0.608              1.935              3.154
 Vibration    12          0.611              1.927              3.010
 Vibration    13          0.614              1.915              2.827
 Vibration    14          0.623              1.888              2.520
 Vibration    15          0.632              1.858              2.262
 Vibration    16          0.642              1.826              2.049
 Vibration    17          0.644              1.820              2.010
 Vibration    18          0.652              1.796              1.882
 Vibration    19          0.656              1.782              1.814
 Vibration    20          0.663              1.762              1.727
 Vibration    21          0.673              1.732              1.609
 Vibration    22          0.678              1.717              1.555
 Vibration    23          0.679              1.714              1.547
 Vibration    24          0.686              1.694              1.479
 Vibration    25          0.692              1.676              1.424
 Vibration    26          0.699              1.654              1.360
 Vibration    27          0.709              1.625              1.284
 Vibration    28          0.721              1.592              1.205
 Vibration    29          0.749              1.516              1.046
 Vibration    30          0.768              1.464              0.952
 Vibration    31          0.794              1.399              0.850
 Vibration    32          0.795              1.395              0.844
 Vibration    33          0.818              1.337              0.764
 Vibration    34          0.822              1.330              0.755
 Vibration    35          0.832              1.305              0.723
 Vibration    36          0.844              1.277              0.689
 Vibration    37          0.857              1.246              0.654
 Vibration    38          0.871              1.216              0.621
 Vibration    39          0.879              1.197              0.601
 Vibration    40          0.887              1.179              0.583
 Vibration    41          0.919              1.110              0.517
 Vibration    42          0.947              1.054              0.468
 Vibration    43          0.947              1.053              0.467
 Vibration    44          0.954              1.039              0.456
 Vibration    45          0.978              0.994              0.420

                           ! Non-Optimized Parameters !
 Normal termination of Gaussian 16 at Tue Dec  5 19:07:58 2023.
