 Gaussian 16, Revision C.01,
 Gaussian 16:  EM64L-G16RevC.01  3-Jul-2019

 ------------------------------
 #p MN15/6-311++G(d,p) opt freq
 ------------------------------

 ---------------
 name file: 3341
 ---------------
 Symbolic Z-matrix:
 Charge =  0 Multiplicity = 1

 SCF Done:  E(RMN15) =  -1296.17204074     A.U. after   15 cycles
 SCF Done:  E(RMN15) =  -1296.20946106     A.U. after   15 cycles
 SCF Done:  E(RMN15) =  -1296.21902970     A.U. after   13 cycles
 SCF Done:  E(RMN15) =  -1296.21988823     A.U. after   13 cycles
 SCF Done:  E(RMN15) =  -1296.22004635     A.U. after   11 cycles
 SCF Done:  E(RMN15) =  -1296.22015873     A.U. after   11 cycles
 SCF Done:  E(RMN15) =  -1296.22024018     A.U. after   11 cycles
 SCF Done:  E(RMN15) =  -1296.22030758     A.U. after   10 cycles
 SCF Done:  E(RMN15) =  -1296.22038849     A.U. after   11 cycles
 SCF Done:  E(RMN15) =  -1296.22040310     A.U. after   10 cycles
 SCF Done:  E(RMN15) =  -1296.22040597     A.U. after    9 cycles
 SCF Done:  E(RMN15) =  -1296.22040660     A.U. after    8 cycles
 SCF Done:  E(RMN15) =  -1296.22040679     A.U. after    8 cycles
 Optimization completed.
    -- Stationary point found.
 Normal termination of Gaussian 16 at Tue Dec  5 14:34:25 2023.

 ----------------------------------------------------------------------
 #P Geom=AllCheck Guess=TCheck SCRF=Check GenChk RMN15/6-311++G(d,p) Fr
 eq
 ----------------------------------------------------------------------

 Structure from the checkpoint file:  "/home/exlonk/in_progress/3341.chk"
 ---------------
 name file: 3341
 ---------------
 Charge =  0 Multiplicity = 1

                         Standard orientation:
 ---------------------------------------------------------------------
 Center     Atomic      Atomic             Coordinates (Angstroms)
 Number     Number       Type             X           Y           Z
 ---------------------------------------------------------------------
      1          6           0       -7.515275   -0.924154   -0.038609
      2          7           0       -6.683687    0.262014   -0.011777
      3          6           0       -7.295360    1.573629    0.041642
      4          6           0       -5.317267    0.140284   -0.005590
      5          6           0       -4.692199   -1.125569   -0.041512
      6          6           0       -3.314479   -1.237881   -0.036261
      7          6           0       -2.485460   -0.108127    0.003111
      8          6           0       -1.030257   -0.285534    0.004067
      9          6           0       -0.123501    0.751271   -0.001162
     10          6           0        1.273872    0.527309   -0.000770
     11          6           0        2.200364    1.660421   -0.006259
     12          6           0        1.731845    2.990922   -0.011011
     13          6           0        2.603587    4.057822   -0.016700
     14          6           0        3.984541    3.822784   -0.017818
     15          6           0        4.463613    2.530707   -0.012895
     16          6           0        3.589194    1.425083   -0.006834
     17          6           0        4.071439    0.052651   -0.001047
     18          6           0        5.443201   -0.264018   -0.000426
     19          6           0        5.878455   -1.571399    0.004937
     20          6           0        4.936749   -2.607038    0.009899
     21          6           0        3.586212   -2.328790    0.009586
     22          6           0        3.130944   -0.995101    0.004213
     23          7           0        1.753514   -0.725232    0.003810
     24          5           0        0.764818   -1.974484    0.008454
     25          9           0        0.991403   -2.721567   -1.138626
     26          9           0        0.991865   -2.712836    1.160974
     27          8           0       -0.628417   -1.525050    0.007003
     28          6           0       -3.104629    1.148511    0.041757
     29          6           0       -4.480302    1.278948    0.038433
     30          1           0       -7.333383   -1.524898   -0.936683
     31          1           0       -7.344277   -1.560128    0.837527
     32          1           0       -8.562191   -0.625514   -0.040103
     33          1           0       -7.024368    2.112441    0.957164
     34          1           0       -7.004953    2.190795   -0.816143
     35          1           0       -8.378258    1.463135    0.024021
     36          1           0       -5.288509   -2.027826   -0.073427
     37          1           0       -2.854043   -2.217511   -0.063894
     38          1           0       -0.497589    1.758114   -0.011573
     39          1           0        0.671787    3.198842   -0.009961
     40          1           0        2.220303    5.071022   -0.020308
     41          1           0        4.678483    4.655371   -0.022448
     42          1           0        5.533456    2.372714   -0.013822
     43          1           0        6.178259    0.529886   -0.004114
     44          1           0        6.939104   -1.792329    0.005330
     45          1           0        5.263310   -3.640239    0.014087
     46          1           0        2.876422   -3.140378    0.013580
     47          1           0       -2.510029    2.053842    0.080386
     48          1           0       -4.910204    2.271258    0.072205
 ---------------------------------------------------------------------

 SCF Done:  E(RMN15) =  -1296.22040679     A.U. after    1 cycles

 The electronic state is 1-A.
 Alpha  occ. eigenvalues --  -24.19263 -24.19256 -18.81858 -14.13388 -14.12453
 Alpha  occ. eigenvalues --  -10.13500 -10.12779 -10.09970 -10.09807 -10.08387
 Alpha  occ. eigenvalues --  -10.08242 -10.08072 -10.07744 -10.06706 -10.06594
 Alpha  occ. eigenvalues --  -10.06584 -10.06192 -10.06179 -10.05784 -10.05149
 Alpha  occ. eigenvalues --  -10.04929 -10.04859 -10.04685 -10.04651 -10.04580
 Alpha  occ. eigenvalues --  -10.04328 -10.04058 -10.03596  -6.77146  -1.19441
 Alpha  occ. eigenvalues --   -1.15637  -1.10859  -1.02396  -1.01485  -0.93259
 Alpha  occ. eigenvalues --   -0.91274  -0.90929  -0.85413  -0.84397  -0.82592
 Alpha  occ. eigenvalues --   -0.81133  -0.80869  -0.78610  -0.78138  -0.77742
 Alpha  occ. eigenvalues --   -0.73678  -0.71051  -0.69587  -0.68819  -0.67109
 Alpha  occ. eigenvalues --   -0.64747  -0.64393  -0.62853  -0.61681  -0.60474
 Alpha  occ. eigenvalues --   -0.59440  -0.57923  -0.56118  -0.55543  -0.54166
 Alpha  occ. eigenvalues --   -0.53474  -0.53208  -0.53178  -0.52972  -0.52296
 Alpha  occ. eigenvalues --   -0.50484  -0.50147  -0.49343  -0.48920  -0.48307
 Alpha  occ. eigenvalues --   -0.47991  -0.47646  -0.47476  -0.47109  -0.46960
 Alpha  occ. eigenvalues --   -0.46860  -0.46457  -0.45112  -0.43689  -0.43596
 Alpha  occ. eigenvalues --   -0.43273  -0.42795  -0.42413  -0.42190  -0.41694
 Alpha  occ. eigenvalues --   -0.41348  -0.40748  -0.39993  -0.39821  -0.39204
 Alpha  occ. eigenvalues --   -0.38948  -0.37887  -0.35276  -0.34410  -0.33967
 Alpha  occ. eigenvalues --   -0.33092  -0.30087  -0.29630  -0.27555  -0.26249
 Alpha  occ. eigenvalues --   -0.23000
 Alpha virt. eigenvalues --   -0.06608  -0.03369  -0.01616   0.00544   0.01320
 Alpha virt. eigenvalues --    0.02037   0.02697   0.03467   0.04080   0.04184
 Alpha virt. eigenvalues --    0.04498   0.05219   0.05813   0.06212   0.06235

 Mulliken charges:
               1
     1  C   -0.253854
     2  N    0.101461
     3  C   -0.241766
     4  C   -0.476536
     5  C   -0.323925
     6  C   -0.106456
     7  C    0.878918
     8  C   -0.082966
     9  C    0.086187
    10  C   -0.024611
    11  C    0.638419
    12  C   -0.409086
    13  C   -0.263803
    14  C   -0.090481
    15  C   -0.537434
    16  C    1.000833
    17  C    0.578519
    18  C   -0.763221
    19  C   -0.534723
    20  C   -0.540727
    21  C   -0.286788
    22  C    0.017997
    23  N    0.246486
    24  B    0.809388
    25  F   -0.194754
    26  F   -0.196452
    27  O   -0.215735
    28  C   -0.261492
    29  C   -0.401545
    30  H    0.135536
    31  H    0.137327
    32  H    0.091960
    33  H    0.131293
    34  H    0.130995
    35  H    0.102730
    36  H    0.126688
    37  H    0.095093
    38  H   -0.226768
    39  H    0.079202
    40  H    0.146104
    41  H    0.153918
    42  H    0.046891
    43  H    0.052667
    44  H    0.135162
    45  H    0.140751
    46  H    0.155598
    47  H    0.097989
    48  H    0.115009
 Sum of Mulliken charges =  -0.00000

 Dipole moment (field-independent basis, Debye):
    X=             -3.4595    Y=              6.3819    Z=             -0.0177  Tot=              7.2593
 Quadrupole moment (field-independent basis, Debye-Ang):
   XX=            -98.1996   YY=           -159.0775   ZZ=           -180.9541
   XY=              4.0601   XZ=             -0.0846   YZ=              0.2844

  Exact polarizability:     596.133     -10.045     345.049       0.038       0.526     154.685
 Approx polarizability:     632.241     -16.285     482.916       0.307       0.928     222.842

 ******    1 imaginary frequencies (negative Signs) ******

                      1                      2                      3
                      A                      A                      A
 Frequencies --     -3.8802                14.6955                37.1994
 Red. masses --      3.4153                 5.1091                 4.3265
 Frc consts  --      0.0000                 0.0007                 0.0035
 IR Inten    --      0.4318                 1.0164                 1.2954

                      4                      5                      6
                      A                      A                      A
 Frequencies --     40.6807                56.8428                59.8493
 Red. masses --      4.9893                 5.2658                 4.2652
 Frc consts  --      0.0049                 0.0100                 0.0090
 IR Inten    --      0.0279                 1.2342                 1.5879

                      7                      8                      9
                      A                      A                      A
 Frequencies --     71.1407                73.1256                91.2729
 Red. masses --      3.4777                 2.8150                 4.7830
 Frc consts  --      0.0104                 0.0089                 0.0235
 IR Inten    --      0.0015                 0.0074                 0.0368

                     10                     11                     12
                      A                      A                      A
 Frequencies --    102.9011               153.0147               170.6112
 Red. masses --      3.0852                 3.2618                 5.4953
 Frc consts  --      0.0192                 0.0450                 0.0942
 IR Inten    --      1.3832                 1.1231                 0.2048

                     13                     14                     15
                      A                      A                      A
 Frequencies --    181.5461               218.3633               225.0246
 Red. masses --      5.6116                 1.8028                 1.5234
 Frc consts  --      0.1090                 0.0506                 0.0455
 IR Inten    --      1.7465                 0.1961                 0.4253

                     16                     17                     18
                      A                      A                      A
 Frequencies --    228.0195               229.3132               258.8702
 Red. masses --      2.7410                 6.2711                 5.4788
 Frc consts  --      0.0840                 0.1943                 0.2163
 IR Inten    --      0.8049                 0.0224                 2.8061

                     19                     20                     21
                      A                      A                      A
 Frequencies --    284.0337               284.2552               312.1525
 Red. masses --      6.3757                 4.9007                 5.8572
 Frc consts  --      0.3031                 0.2333                 0.3363
 IR Inten    --      1.5290                 0.3026                 1.7339

                     22                     23                     24
                      A                      A                      A
 Frequencies --    319.7211               386.5795               395.1984
 Red. masses --      3.8834                 6.9296                 7.0493
 Frc consts  --      0.2339                 0.6102                 0.6487
 IR Inten    --      1.7023                 0.0241                 3.8167

                     25                     26                     27
                      A                      A                      A
 Frequencies --    404.6767               418.0999               421.6941
 Red. masses --      4.1481                 6.5596                 2.9723
 Frc consts  --      0.4002                 0.6756                 0.3114
 IR Inten    --      4.5046                 2.0423                 0.2083

                     28                     29                     30
                      A                      A                      A
 Frequencies --    425.7112               443.0312               469.1017
 Red. masses --      3.3456                 3.8759                 4.8636
 Frc consts  --      0.3572                 0.4482                 0.6306
 IR Inten    --      4.0134                 0.3089                 1.3799

                     31                     32                     33
                      A                      A                      A
 Frequencies --    474.7046               486.1687               500.3005
 Red. masses --      5.2684                 4.0721                 5.0215
 Frc consts  --      0.6995                 0.5671                 0.7405
 IR Inten    --      2.6559                 2.1949                 9.7323

                     34                     35                     36
                      A                      A                      A
 Frequencies --    510.5507               548.2674               558.4582
 Red. masses --      2.5417                 3.5841                 7.4739
 Frc consts  --      0.3904                 0.6348                 1.3733
 IR Inten    --      9.1029                 0.0833                26.3183

                     37                     38                     39
                      A                      A                      A
 Frequencies --    564.3655               570.1529               610.5313
 Red. masses --      3.7505                 7.6666                 6.8577
 Frc consts  --      0.7038                 1.4684                 1.5061
 IR Inten    --      0.7591                 0.4867                 4.2500

                     40                     41                     42
                      A                      A                      A
 Frequencies --    627.1813               630.2855               645.8550
 Red. masses --      7.0622                 6.7878                 7.0327
 Frc consts  --      1.6367                 1.5887                 1.7284
 IR Inten    --      6.2660                 1.2816                 5.5944

                     43                     44                     45
                      A                      A                      A
 Frequencies --    664.8275               684.8582               695.7223
 Red. masses --      3.4140                 1.6309                 5.7993
 Frc consts  --      0.8891                 0.4507                 1.6538
 IR Inten    --      1.9098                 0.0817                 7.2678

                     46                     47                     48
                      A                      A                      A
 Frequencies --    709.5870               728.1920               751.1767
 Red. masses --      3.2836                 2.3952                 6.2452
 Frc consts  --      0.9741                 0.7483                 2.0763
 IR Inten    --      0.7627                35.3482                11.1596

                     49                     50                     51
                      A                      A                      A
 Frequencies --    759.9896               760.4954               768.3164
 Red. masses --      2.3234                 5.3333                 1.9730
 Frc consts  --      0.7906                 1.8174                 0.6862
 IR Inten    --     21.4301                11.3493                91.9900

                     52                     53                     54
                      A                      A                      A
 Frequencies --    773.7803               806.6960               809.2158
 Red. masses --      1.6329                 1.3086                 3.4559
 Frc consts  --      0.5760                 0.5017                 1.3333
 IR Inten    --      5.3529                 7.3748                16.9387

                     55                     56                     57
                      A                      A                      A
 Frequencies --    829.1097               843.8356               862.5473
 Red. masses --      6.7894                 1.9726                 1.7454
 Frc consts  --      2.7498                 0.8276                 0.7651
 IR Inten    --      2.7723                31.5464                 0.4476

                     58                     59                     60
                      A                      A                      A
 Frequencies --    867.6104               885.5220               939.1567
 Red. masses --      1.3904                 8.4442                 8.5591
 Frc consts  --      0.6167                 3.9013                 4.4479
 IR Inten    --      0.0725                10.8721                 8.1334

                     61                     62                     63
                      A                      A                      A
 Frequencies --    953.5257               964.1674               972.1940
 Red. masses --      1.3657                 1.3770                 1.3547
 Frc consts  --      0.7316                 0.7542                 0.7544
 IR Inten    --      0.0273                 0.1693                 0.0460

                     64                     65                     66
                      A                      A                      A
 Frequencies --    976.6199               980.9244               994.6157
 Red. masses --      3.0563                 7.3493                 1.3452
 Frc consts  --      1.7175                 4.1664                 0.7840
 IR Inten    --     21.1677                46.9919                 0.1287

                     67                     68                     69
                      A                      A                      A
 Frequencies --   1002.8317              1009.2590              1009.6108
 Red. masses --      1.3151                 1.3183                 2.8469
 Frc consts  --      0.7792                 0.7911                 1.7097
 IR Inten    --      0.4738                 0.0730                 6.8137

                     70                     71                     72
                      A                      A                      A
 Frequencies --   1012.1957              1064.5750              1074.3137
 Red. masses --      7.0527                 4.4475                 1.8639
 Frc consts  --      4.2573                 2.9698                 1.2675
 IR Inten    --     20.4438               128.0455                73.2076

                     73                     74                     75
                      A                      A                      A
 Frequencies --   1077.1165              1088.3112              1104.1689
 Red. masses --      1.4185                 2.9244                 2.7205
 Frc consts  --      0.9696                 2.0407                 1.9542
 IR Inten    --     24.0651               111.5104                25.4243

                     76                     77                     78
                      A                      A                      A
 Frequencies --   1127.4803              1129.0279              1145.7867
 Red. masses --      1.2417                 1.3263                 2.3138
 Frc consts  --      0.9300                 0.9961                 1.7897
 IR Inten    --      0.0360                 0.9333                60.5919

                     79                     80                     81
                      A                      A                      A
 Frequencies --   1147.9014              1159.5268              1160.4859
 Red. masses --      1.6156                10.7489                 1.4032
 Frc consts  --      1.2543                 8.5148                 1.1134
 IR Inten    --      0.4243               284.7014                98.8455

                     82                     83                     84
                      A                      A                      A
 Frequencies --   1168.8411              1186.3019              1191.5717
 Red. masses --      1.2036                 1.6617                 1.2049
 Frc consts  --      0.9688                 1.3778                 1.0080
 IR Inten    --     26.8907                63.2694                 0.9356

                     85                     86                     87
                      A                      A                      A
 Frequencies --   1196.6812              1217.2954              1253.5570
 Red. masses --      1.3941                 1.3786                 1.6848
 Frc consts  --      1.1762                 1.2036                 1.5598
 IR Inten    --    107.1276               113.0804               128.9182

                     88                     89                     90
                      A                      A                      A
 Frequencies --   1267.8357              1286.8501              1294.2681
 Red. masses --      2.3507                 2.5558                 2.2720
 Frc consts  --      2.2263                 2.4937                 2.2424
 IR Inten    --      8.1010                44.4771               144.8485

                     91                     92                     93
                      A                      A                      A
 Frequencies --   1320.8980              1329.9907              1339.5733
 Red. masses --      1.9720                 1.7303                 2.4113
 Frc consts  --      2.0272                 1.8033                 2.5494
 IR Inten    --    134.2425                14.1904                11.9691

                     94                     95                     96
                      A                      A                      A
 Frequencies --   1362.8122              1380.0233              1386.5117
 Red. masses --      4.3882                 5.4656                 3.7098
 Frc consts  --      4.8019                 6.1328                 4.2020
 IR Inten    --      1.1307                17.5340                 3.4087

                     97                     98                     99
                      A                      A                      A
 Frequencies --   1402.7224              1420.6491              1430.2191
 Red. masses --      2.8364                 5.0007                 1.2610
 Frc consts  --      3.2882                 5.9464                 1.5197
 IR Inten    --    500.6952               267.7573                 7.5258

                    100                    101                    102
                      A                      A                      A
 Frequencies --   1451.4310              1464.8445              1468.6717
 Red. masses --      3.6753                 2.8648                 2.0032
 Frc consts  --      4.5618                 3.6219                 2.5458
 IR Inten    --    228.1375               115.3678                66.9624

                    103                    104                    105
                      A                      A                      A
 Frequencies --   1469.1868              1475.4027              1478.1253
 Red. masses --      1.0633                 1.3889                 1.0431
 Frc consts  --      1.3523                 1.7813                 1.3428
 IR Inten    --      3.0693                28.8477                17.3038

                    106                    107                    108
                      A                      A                      A
 Frequencies --   1486.4792              1504.8528              1519.0316
 Red. masses --      2.5909                 1.1843                 1.1224
 Frc consts  --      3.3730                 1.5802                 1.5260
 IR Inten    --     10.5238                 3.6482               162.7358

                    109                    110                    111
                      A                      A                      A
 Frequencies --   1523.2537              1537.1815              1556.2389
 Red. masses --      3.5788                 3.2799                 3.5710
 Frc consts  --      4.8925                 4.5662                 5.0955
 IR Inten    --     10.9032               248.6609              2761.0409

                    112                    113                    114
                      A                      A                      A
 Frequencies --   1577.1596              1600.6868              1617.9819
 Red. masses --      4.2225                 4.7120                 6.4906
 Frc consts  --      6.1884                 7.1133                10.0112
 IR Inten    --     44.2343               797.6409                57.7879

                    115                    116                    117
                      A                      A                      A
 Frequencies --   1648.4863              1652.2139              1673.5558
 Red. masses --      7.7805                 8.0752                 6.3638
 Frc consts  --     12.4575                12.9879                10.5014
 IR Inten    --    234.6494                49.4927               262.1621

                    118                    119                    120
                      A                      A                      A
 Frequencies --   1674.3370              1677.5209              3027.8625
 Red. masses --      6.1098                 6.5388                 1.0381
 Frc consts  --     10.0917                10.8415                 5.6071
 IR Inten    --     45.3466                33.3874                90.0472

                    121                    122                    123
                      A                      A                      A
 Frequencies --   3035.5054              3080.6815              3084.8313
 Red. masses --      1.0405                 1.1034                 1.1044
 Frc consts  --      5.6488                 6.1699                 6.1920
 IR Inten    --    114.0265                28.3918                44.4643

                    124                    125                    126
                      A                      A                      A
 Frequencies --   3164.4773              3174.9629              3211.2650
 Red. masses --      1.0976                 1.0953                 1.0863
 Frc consts  --      6.4756                 6.5050                 6.6004
 IR Inten    --      2.5061                42.4950                 0.3999

                    127                    128                    129
                      A                      A                      A
 Frequencies --   3212.6739              3213.9711              3224.8822
 Red. masses --      1.0870                 1.0878                 1.0915
 Frc consts  --      6.6104                 6.6205                 6.6878
 IR Inten    --      4.8381                 8.7957                24.1711

                    130                    131                    132
                      A                      A                      A
 Frequencies --   3228.0453              3232.2931              3236.6108
 Red. masses --      1.0933                 1.0872                 1.0969
 Frc consts  --      6.7121                 6.6927                 6.7703
 IR Inten    --      7.0449                 5.7595                 8.2485

                    133                    134                    135
                      A                      A                      A
 Frequencies --   3240.2146              3246.7234              3252.2954
 Red. masses --      1.0924                 1.0943                 1.0905
 Frc consts  --      6.7572                 6.7964                 6.7957
 IR Inten    --     13.8827                11.3866                28.2140

                    136                    137                    138
                      A                      A                      A
 Frequencies --   3256.4856              3288.8209              3320.8412
 Red. masses --      1.0931                 1.0929                 1.0875
 Frc consts  --      6.8295                 6.9647                 7.0658
 IR Inten    --      4.7778                 5.5000                 2.5850

 - Thermochemistry -
 -------------------
 Temperature   298.150 Kelvin.  Pressure   1.00000 Atm.
 Atom     1 has atomic number  6 and mass  12.00000

 Molecular mass:   388.15585 amu.
 Principal axes and moments of inertia in atomic units:
                           1         2         3
     Eigenvalues --  5266.27242********************
           X            1.00000   0.00041  -0.00004
           Y           -0.00041   1.00000   0.00051
           Z            0.00004  -0.00051   1.00000
 This molecule is an asymmetric top.
 Rotational symmetry number  1.
 Warning -- assumption of classical behavior for rotation
           may cause significant error
 Rotational temperatures (Kelvin)      0.01645     0.00393     0.00321
 Rotational constants (GHZ):           0.34270     0.08179     0.06697
    1 imaginary frequencies ignored.
 Zero-point vibrational energy     987071.8 (Joules/Mol)
                                  235.91581 (Kcal/Mol)
 Warning -- explicit consideration of  38 degrees of freedom as
           vibrations may cause significant error
 Vibrational temperatures:     21.14    53.52    58.53    81.78    86.11
          (Kelvin)            102.36   105.21   131.32   148.05   220.15
                              245.47   261.20   314.18   323.76   328.07
                              329.93   372.46   408.66   408.98   449.12
                              460.01   556.20   568.60   582.24   601.55
                              606.72   612.50   637.42   674.93   682.99
                              699.49   719.82   734.57   788.83   803.50
                              812.00   820.32   878.42   902.37   906.84
                              929.24   956.54   985.36  1000.99  1020.94
                             1047.71  1080.78  1093.46  1094.18  1105.44
                             1113.30  1160.66  1164.28  1192.90  1214.09
                             1241.01  1248.30  1274.07  1351.24  1371.91
                             1387.22  1398.77  1405.14  1411.33  1431.03
                             1442.85  1452.10  1452.60  1456.32  1531.69
                             1545.70  1549.73  1565.84  1588.65  1622.19
                             1624.42  1648.53  1651.57  1668.30  1669.68
                             1681.70  1706.82  1714.41  1721.76  1751.42
                             1803.59  1824.13  1851.49  1862.16  1900.48
                             1913.56  1927.35  1960.78  1985.55  1994.88
                             2018.20  2044.00  2057.77  2088.29  2107.58
                             2113.09  2113.83  2122.78  2126.69  2138.71
                             2165.15  2185.55  2191.62  2211.66  2239.08
                             2269.18  2303.03  2327.92  2371.80  2377.17
                             2407.87  2409.00  2413.58  4356.42  4367.42
                             4432.41  4438.38  4552.98  4568.06  4620.29
                             4622.32  4624.19  4639.89  4644.44  4650.55
                             4656.76  4661.95  4671.31  4679.33  4685.36
                             4731.88  4777.95

 Zero-point correction=                           0.375956 (Hartree/Particle)
 Thermal correction to Energy=                    0.399228
 Thermal correction to Enthalpy=                  0.400172
 Thermal correction to Gibbs Free Energy=         0.321921
 Sum of electronic and zero-point Energies=          -1295.844451
 Sum of electronic and thermal Energies=             -1295.821179
 Sum of electronic and thermal Enthalpies=           -1295.820235
 Sum of electronic and thermal Free Energies=        -1295.898485

                     E (Thermal)             CV                S
                      KCal/Mol        Cal/Mol-Kelvin    Cal/Mol-Kelvin
 Total                  250.519             92.980            164.692
 Electronic               0.000              0.000              0.000
 Translational            0.889              2.981             43.761
 Rotational               0.889              2.981             36.391
 Vibrational            248.742             87.019             84.540
 Vibration     1          0.593              1.986              7.246
 Vibration     2          0.594              1.982              5.403
 Vibration     3          0.594              1.981              5.226
 Vibration     4          0.596              1.975              4.564
 Vibration     5          0.597              1.973              4.462
 Vibration     6          0.598              1.968              4.122
 Vibration     7          0.599              1.967              4.067
 Vibration     8          0.602              1.955              3.633
 Vibration     9          0.605              1.947              3.399
 Vibration    10          0.619              1.899              2.634
 Vibration    11          0.626              1.879              2.429
 Vibration    12          0.630              1.865              2.312
 Vibration    13          0.646              1.813              1.973
 Vibration    14          0.650              1.803              1.918
 Vibration    15          0.651              1.798              1.894
 Vibration    16          0.652              1.796              1.884
 Vibration    17          0.668              1.748              1.669
 Vibration    18          0.682              1.703              1.509
 Vibration    19          0.683              1.703              1.508
 Vibration    20          0.700              1.651              1.351
 Vibration    21          0.706              1.636              1.312
 Vibration    22          0.755              1.499              1.013
 Vibration    23          0.762              1.480              0.980
 Vibration    24          0.770              1.460              0.946
 Vibration    25          0.781              1.431              0.898
 Vibration    26          0.784              1.423              0.886
 Vibration    27          0.788              1.414              0.873
 Vibration    28          0.803              1.376              0.817
 Vibration    29          0.826              1.319              0.740
 Vibration    30          0.831              1.306              0.724
 Vibration    31          0.842              1.281              0.694
 Vibration    32          0.856              1.249              0.657
 Vibration    33          0.866              1.227              0.632
 Vibration    34          0.904              1.143              0.548
 Vibration    35          0.914              1.121              0.527
 Vibration    36          0.920              1.108              0.515
 Vibration    37          0.926              1.096              0.504
 Vibration    38          0.970              1.010              0.432

                           ! Non-Optimized Parameters !
 Normal termination of Gaussian 16 at Tue Dec  5 16:06:10 2023.
