 Gaussian 16, Revision C.01,
 Gaussian 16:  EM64L-G16RevC.01  3-Jul-2019

 ------------------------------
 #p MN15/6-311++G(d,p) opt freq
 ------------------------------

 ---------------
 name file: 3342
 ---------------
 Symbolic Z-matrix:
 Charge =  0 Multiplicity = 1

 SCF Done:  E(RMN15) =  -940.781311660     A.U. after   16 cycles
 SCF Done:  E(RMN15) =  -940.793216937     A.U. after   13 cycles
 SCF Done:  E(RMN15) =  -940.794789241     A.U. after   14 cycles
 SCF Done:  E(RMN15) =  -940.794926015     A.U. after   12 cycles
 SCF Done:  E(RMN15) =  -940.795181988     A.U. after   13 cycles
 SCF Done:  E(RMN15) =  -940.795320950     A.U. after   12 cycles
 SCF Done:  E(RMN15) =  -940.795345896     A.U. after   12 cycles
 SCF Done:  E(RMN15) =  -940.795349670     A.U. after   10 cycles
 SCF Done:  E(RMN15) =  -940.795353144     A.U. after   11 cycles
 SCF Done:  E(RMN15) =  -940.795355551     A.U. after   11 cycles
 SCF Done:  E(RMN15) =  -940.795356224     A.U. after   10 cycles
 SCF Done:  E(RMN15) =  -940.795356342     A.U. after   10 cycles
 Optimization completed.
    -- Stationary point found.
 Normal termination of Gaussian 16 at Tue Dec  5 12:04:38 2023.

 ----------------------------------------------------------------------
 #P Geom=AllCheck Guess=TCheck SCRF=Check GenChk RMN15/6-311++G(d,p) Fr
 eq
 ----------------------------------------------------------------------

 Structure from the checkpoint file:  "/home/exlonk/in_progress/3342.chk"
 ---------------
 name file: 3342
 ---------------
 Charge =  0 Multiplicity = 1

                         Standard orientation:
 ---------------------------------------------------------------------
 Center     Atomic      Atomic             Coordinates (Angstroms)
 Number     Number       Type             X           Y           Z
 ---------------------------------------------------------------------
      1          8           0        2.420467   -1.141017   -1.231071
      2          7           0        3.258115    0.311710    0.308489
      3          6           0       -1.488496    0.506618   -0.087974
      4          6           0       -2.728429   -0.190130    0.035395
      5          6           0        4.648246   -0.176073    0.326369
      6          6           0       -0.268277   -0.217583   -0.213202
      7          6           0       -1.485898    1.928365   -0.088800
      8          6           0        0.939404    0.504276   -0.310170
      9          6           0       -2.749160   -1.608904    0.043780
     10          6           0       -3.947676    0.530533    0.152108
     11          6           0       -0.323021   -1.657879   -0.198601
     12          6           0        2.258620   -0.201261   -0.463518
     13          6           0       -0.268844    2.606721   -0.202575
     14          6           0        0.921124    1.901113   -0.303687
     15          6           0       -1.503288   -2.312790   -0.074333
     16          6           0       -2.734057    2.633550    0.026616
     17          6           0        4.698182   -1.634990    0.785230
     18          6           0        5.275557   -0.026604   -1.060380
     19          6           0        5.394931    0.704267    1.325385
     20          6           0       -3.907979    1.967812    0.142036
     21          6           0       -3.973593   -2.276792    0.166210
     22          6           0       -5.150983   -0.173861    0.272092
     23          6           0       -5.162389   -1.564833    0.279119
     24          1           0        2.997506    1.000713    1.002495
     25          1           0        0.600324   -2.209741   -0.307918
     26          1           0       -0.265499    3.691638   -0.217737
     27          1           0        1.855952    2.441063   -0.413781
     28          1           0       -1.526665   -3.397993   -0.066298
     29          1           0       -2.709451    3.718518    0.019907
     30          1           0        5.738400   -1.969330    0.836985
     31          1           0        4.252565   -1.735834    1.779000
     32          1           0        4.157324   -2.274083    0.086926
     33          1           0        6.320756   -0.347053   -1.025030
     34          1           0        5.244326    1.018972   -1.379510
     35          1           0        4.744348   -0.636458   -1.791251
     36          1           0        6.440286    0.393888    1.384723
     37          1           0        4.957674    0.616808    2.325359
     38          1           0        5.366447    1.753675    1.016070
     39          1           0       -4.845474    2.507656    0.229679
     40          1           0       -3.981615   -3.361957    0.170958
     41          1           0       -6.078873    0.382185    0.359389
     42          1           0       -6.102713   -2.095827    0.372580
 ---------------------------------------------------------------------

 SCF Done:  E(RMN15) =  -940.795356342     A.U. after    1 cycles

 The electronic state is 1-A.
 Alpha  occ. eigenvalues --  -18.76886 -14.11294 -10.14873 -10.09338 -10.06533
 Alpha  occ. eigenvalues --  -10.06294 -10.06116 -10.06055 -10.05955 -10.05800
 Alpha  occ. eigenvalues --  -10.05716 -10.05631 -10.05356 -10.05235 -10.05228
 Alpha  occ. eigenvalues --  -10.05015 -10.04958 -10.04899 -10.04705 -10.04289
 Alpha  occ. eigenvalues --  -10.03947 -10.02295 -10.02254  -1.08352  -0.97538
 Alpha  occ. eigenvalues --   -0.95085  -0.91002  -0.88530  -0.86027  -0.84376
 Alpha  occ. eigenvalues --   -0.81909  -0.79826  -0.78216  -0.76472  -0.74462
 Alpha  occ. eigenvalues --   -0.73361  -0.69685  -0.68148  -0.67497  -0.66402
 Alpha  occ. eigenvalues --   -0.64486  -0.60713  -0.59669  -0.58450  -0.56622
 Alpha  occ. eigenvalues --   -0.55897  -0.54657  -0.53265  -0.52037  -0.50319
 Alpha  occ. eigenvalues --   -0.49967  -0.48974  -0.48635  -0.48051  -0.47371
 Alpha  occ. eigenvalues --   -0.46825  -0.46345  -0.46136  -0.45030  -0.44429
 Alpha  occ. eigenvalues --   -0.43722  -0.43509  -0.42520  -0.41767  -0.41606
 Alpha  occ. eigenvalues --   -0.41191  -0.40987  -0.40520  -0.39303  -0.38194
 Alpha  occ. eigenvalues --   -0.37935  -0.37650  -0.36557  -0.34725  -0.32008
 Alpha  occ. eigenvalues --   -0.30351  -0.30078  -0.29577  -0.27222  -0.23704
 Alpha virt. eigenvalues --   -0.05307  -0.02106   0.00357   0.01497   0.02395
 Alpha virt. eigenvalues --    0.03401   0.03985   0.04704   0.04809   0.05199
 Alpha virt. eigenvalues --    0.05682   0.06085   0.06371   0.06757   0.07310

 Mulliken charges:
               1
     1  O   -0.300239
     2  N    0.067709
     3  C   -0.290597
     4  C   -0.223241
     5  C   -0.500390
     6  C    0.760009
     7  C    0.662985
     8  C    0.955957
     9  C    0.607239
    10  C    0.337472
    11  C   -0.639271
    12  C   -0.409671
    13  C   -0.475715
    14  C   -0.408400
    15  C   -0.562906
    16  C   -0.363432
    17  C   -0.147007
    18  C   -0.134736
    19  C   -0.294288
    20  C   -0.352991
    21  C   -0.346898
    22  C   -0.071841
    23  C   -0.151394
    24  H    0.236763
    25  H    0.044438
    26  H    0.114787
    27  H    0.105450
    28  H    0.139284
    29  H    0.100008
    30  H    0.123058
    31  H    0.099685
    32  H    0.146597
    33  H    0.121651
    34  H    0.101117
    35  H    0.158720
    36  H    0.133407
    37  H    0.115961
    38  H    0.116056
    39  H    0.109966
    40  H    0.082695
    41  H    0.085988
    42  H    0.146016
 Sum of Mulliken charges =  -0.00000

 Dipole moment (field-independent basis, Debye):
    X=              0.0319    Y=              2.0930    Z=              2.4091  Tot=              3.1915
 Quadrupole moment (field-independent basis, Debye-Ang):
   XX=           -114.8669   YY=           -124.7865   ZZ=           -144.9789
   XY=              5.3192   XZ=              5.4243   YZ=             -2.0580

  Exact polarizability:     395.138      26.788     277.606     -11.630      -0.078     149.191
 Approx polarizability:     501.388      49.352     422.995     -23.380       4.621     213.409

                      1                      2                      3
                      A                      A                      A
 Frequencies --     27.4964                37.2719                52.0784
 Red. masses --      4.4520                 3.2116                 4.4587
 Frc consts  --      0.0020                 0.0026                 0.0071
 IR Inten    --      1.0822                 0.0939                 0.8399

                      4                      5                      6
                      A                      A                      A
 Frequencies --     95.1593               119.8306               127.3423
 Red. masses --      4.5387                 4.1235                 3.8090
 Frc consts  --      0.0242                 0.0349                 0.0364
 IR Inten    --      0.2668                 3.2076                 0.3028

                      7                      8                      9
                      A                      A                      A
 Frequencies --    167.9913               196.6051               203.8212
 Red. masses --      5.2524                 4.0691                 3.9518
 Frc consts  --      0.0873                 0.0927                 0.0967
 IR Inten    --      1.4109                 1.5584                 3.8457

                     10                     11                     12
                      A                      A                      A
 Frequencies --    212.8211               217.5781               259.3816
 Red. masses --      3.8329                 1.1176                 4.4027
 Frc consts  --      0.1023                 0.0312                 0.1745
 IR Inten    --      8.7040                 1.0575                 0.8322

                     13                     14                     15
                      A                      A                      A
 Frequencies --    265.4269               277.2678               290.9888
 Red. masses --      1.1030                 4.3955                 1.0686
 Frc consts  --      0.0458                 0.1991                 0.0533
 IR Inten    --      0.2160                 4.6621                 0.0616

                     16                     17                     18
                      A                      A                      A
 Frequencies --    324.3836               335.4687               349.8647
 Red. masses --      2.6813                 3.9886                 2.8239
 Frc consts  --      0.1662                 0.2645                 0.2037
 IR Inten    --      7.3143                 2.3170                 2.3890

                     19                     20                     21
                      A                      A                      A
 Frequencies --    389.3480               401.7077               405.2030
 Red. masses --      3.4430                 3.6687                 4.4605
 Frc consts  --      0.3075                 0.3488                 0.4315
 IR Inten    --      2.9942                 0.9967                 0.0749

                     22                     23                     24
                      A                      A                      A
 Frequencies --    431.3579               450.4194               456.4680
 Red. masses --      3.0286                 2.8269                 3.8342
 Frc consts  --      0.3320                 0.3379                 0.4707
 IR Inten    --      6.2784                19.8692                 5.6315

                     25                     26                     27
                      A                      A                      A
 Frequencies --    473.4662               483.9570               491.1497
 Red. masses --      4.1761                 1.5933                 3.7757
 Frc consts  --      0.5516                 0.2199                 0.5366
 IR Inten    --      2.2905                16.3361                 0.9413

                     28                     29                     30
                      A                      A                      A
 Frequencies --    503.7159               507.6201               530.1112
 Red. masses --      3.2675                 5.2765                 3.2429
 Frc consts  --      0.4885                 0.8011                 0.5369
 IR Inten    --      4.3474                 1.9853                 2.8595

                     31                     32                     33
                      A                      A                      A
 Frequencies --    546.8108               574.2011               609.2394
 Red. masses --      3.5517                 5.4335                 5.2671
 Frc consts  --      0.6257                 1.0555                 1.1519
 IR Inten    --      4.3443                 0.3797                 2.9039

                     34                     35                     36
                      A                      A                      A
 Frequencies --    620.4304               676.4182               693.3606
 Red. masses --      6.2105                 4.3335                 6.8371
 Frc consts  --      1.4085                 1.1682                 1.9366
 IR Inten    --      2.0320                 2.0328                 1.7436

                     37                     38                     39
                      A                      A                      A
 Frequencies --    702.8560               715.9914               735.3195
 Red. masses --      3.4924                 5.1089                 5.1128
 Frc consts  --      1.0165                 1.5431                 1.6288
 IR Inten    --     18.3228                 1.1841                 3.5785

                     40                     41                     42
                      A                      A                      A
 Frequencies --    764.7706               779.1003               793.3237
 Red. masses --      1.4995                 4.5143                 2.5506
 Frc consts  --      0.5167                 1.6145                 0.9458
 IR Inten    --     11.9975                 3.1073                 1.9702

                     43                     44                     45
                      A                      A                      A
 Frequencies --    812.3522               817.2027               821.2567
 Red. masses --      1.3873                 4.3722                 4.4974
 Frc consts  --      0.5394                 1.7203                 1.7872
 IR Inten    --      0.7357                13.3248                13.9441

                     46                     47                     48
                      A                      A                      A
 Frequencies --    846.3920               864.7882               906.9822
 Red. masses --      1.8438                 1.5776                 4.5060
 Frc consts  --      0.7782                 0.6951                 2.1839
 IR Inten    --     47.1111                65.8432                15.4776

                     49                     50                     51
                      A                      A                      A
 Frequencies --    923.2722               929.1360               937.8002
 Red. masses --      1.4201                 1.5900                 1.6404
 Frc consts  --      0.7132                 0.8087                 0.8500
 IR Inten    --      0.1758                 0.0726                 1.0517

                     52                     53                     54
                      A                      A                      A
 Frequencies --    948.2766               949.4654               981.0837
 Red. masses --      1.2656                 2.1931                 1.3543
 Frc consts  --      0.6705                 1.1649                 0.7680
 IR Inten    --      0.8679                 5.0686                 0.1102

                     55                     56                     57
                      A                      A                      A
 Frequencies --    987.5210               993.6970               999.2698
 Red. masses --      4.4719                 1.3127                 1.3147
 Frc consts  --      2.5694                 0.7637                 0.7734
 IR Inten    --      0.4565                 0.2532                 0.0531

                     58                     59                     60
                      A                      A                      A
 Frequencies --   1006.4491              1038.6443              1048.3996
 Red. masses --      1.3128                 1.4011                 1.5426
 Frc consts  --      0.7835                 0.8906                 0.9990
 IR Inten    --      0.4874                 0.1092                 0.3109

                     61                     62                     63
                      A                      A                      A
 Frequencies --   1068.5762              1108.9652              1118.5710
 Red. masses --      3.2116                 1.8324                 1.9334
 Frc consts  --      2.1606                 1.3277                 1.4253
 IR Inten    --      5.2688                 3.1291                 0.5532

                     64                     65                     66
                      A                      A                      A
 Frequencies --   1148.3821              1163.8807              1182.5317
 Red. masses --      1.2702                 1.3619                 1.5786
 Frc consts  --      0.9869                 1.0870                 1.3006
 IR Inten    --      0.5207                10.5219                 1.0501

                     67                     68                     69
                      A                      A                      A
 Frequencies --   1191.1472              1216.5679              1237.8071
 Red. masses --      1.2827                 1.7805                 1.9385
 Frc consts  --      1.0723                 1.5526                 1.7499
 IR Inten    --     12.8148                13.7010                43.0281

                     70                     71                     72
                      A                      A                      A
 Frequencies --   1241.2004              1257.0297              1257.8306
 Red. masses --      1.9406                 2.6564                 1.8104
 Frc consts  --      1.7615                 2.4730                 1.6876
 IR Inten    --     21.2618                 5.4842                 0.2564

                     73                     74                     75
                      A                      A                      A
 Frequencies --   1263.8169              1265.5220              1304.8403
 Red. masses --      2.5462                 2.8791                 2.4289
 Frc consts  --      2.3962                 2.7167                 2.4365
 IR Inten    --     30.3713                 0.9316               137.8247

                     76                     77                     78
                      A                      A                      A
 Frequencies --   1331.3346              1354.4976              1380.5554
 Red. masses --      3.9536                 3.4331                 1.3378
 Frc consts  --      4.1287                 3.7110                 1.5023
 IR Inten    --      2.2734                 7.6530                22.0711

                     79                     80                     81
                      A                      A                      A
 Frequencies --   1382.7733              1403.2942              1407.0891
 Red. masses --      1.3712                 2.6792                 1.3220
 Frc consts  --      1.5448                 3.1085                 1.5421
 IR Inten    --     30.5501                 6.5958                41.8071

                     82                     83                     84
                      A                      A                      A
 Frequencies --   1423.1852              1431.2839              1450.0817
 Red. masses --      4.8262                 2.5729                 3.6788
 Frc consts  --      5.7595                 3.1055                 4.5577
 IR Inten    --      1.4373                 3.9063                 0.5842

                     85                     86                     87
                      A                      A                      A
 Frequencies --   1451.7658              1463.2392              1468.9472
 Red. masses --      1.0439                 2.3462                 1.0483
 Frc consts  --      1.2963                 2.9597                 1.3327
 IR Inten    --      0.1264                17.1455                 0.5228

                     88                     89                     90
                      A                      A                      A
 Frequencies --   1471.9627              1473.5202              1487.6228
 Red. masses --      1.0539                 1.1909                 1.0620
 Frc consts  --      1.3454                 1.5235                 1.3848
 IR Inten    --      6.1736                75.6505                 5.4188

                     91                     92                     93
                      A                      A                      A
 Frequencies --   1496.2884              1505.1785              1526.6808
 Red. masses --      5.2475                 1.0779                 2.1665
 Frc consts  --      6.9220                 1.4388                 2.9751
 IR Inten    --     17.9220                32.1352               431.3916

                     94                     95                     96
                      A                      A                      A
 Frequencies --   1539.4952              1556.4964              1600.1586
 Red. masses --      4.6926                 4.5816                 5.8995
 Frc consts  --      6.5527                 6.5398                 8.9000
 IR Inten    --      5.1027                92.3575                10.5279

                     97                     98                     99
                      A                      A                      A
 Frequencies --   1646.4685              1656.9196              1669.8961
 Red. masses --      7.1310                 7.6116                 6.7466
 Frc consts  --     11.3895                12.3120                11.0844
 IR Inten    --     14.5820                15.5924                 5.3258

                    100                    101                    102
                      A                      A                      A
 Frequencies --   1696.9386              1759.4775              3047.1926
 Red. masses --      7.6343                10.6528                 1.0364
 Frc consts  --     12.9524                19.4304                 5.6700
 IR Inten    --      3.1842               216.2608                21.2411

                    103                    104                    105
                      A                      A                      A
 Frequencies --   3055.8831              3059.8700              3121.0076
 Red. masses --      1.0370                 1.0377                 1.1027
 Frc consts  --      5.7055                 5.7246                 6.3282
 IR Inten    --     34.4711                33.2072                21.8915

                    106                    107                    108
                      A                      A                      A
 Frequencies --   3127.9703              3130.7579              3144.4068
 Red. masses --      1.1024                 1.1019                 1.1005
 Frc consts  --      6.3548                 6.3637                 6.4109
 IR Inten    --     24.2985                44.6915                44.3806

                    109                    110                    111
                      A                      A                      A
 Frequencies --   3167.8796              3169.4764              3192.6994
 Red. masses --      1.1003                 1.1003                 1.0860
 Frc consts  --      6.5060                 6.5124                 6.5224
 IR Inten    --      2.9784                11.5805                 1.3574

                    112                    113                    114
                      A                      A                      A
 Frequencies --   3195.9373              3196.3733              3199.0801
 Red. masses --      1.0868                 1.0865                 1.0900
 Frc consts  --      6.5401                 6.5402                 6.5726
 IR Inten    --      6.8057                 1.7832                10.2958

                    115                    116                    117
                      A                      A                      A
 Frequencies --   3202.6120              3211.3759              3212.3600
 Red. masses --      1.0910                 1.0971                 1.0951
 Frc consts  --      6.5929                 6.6662                 6.6582
 IR Inten    --     18.5665                21.6134                26.0957

                    118                    119                    120
                      A                      A                      A
 Frequencies --   3223.5788              3254.9782              3644.3282
 Red. masses --      1.0967                 1.0931                 1.0776
 Frc consts  --      6.7145                 6.8233                 8.4325
 IR Inten    --     32.6003                 5.6397                24.1809

 - Thermochemistry -
 -------------------
 Temperature   298.150 Kelvin.  Pressure   1.00000 Atm.
 Atom     1 has atomic number  8 and mass  15.99491

 Molecular mass:   301.14666 amu.
 Principal axes and moments of inertia in atomic units:
                           1         2         3
     Eigenvalues --  2786.09348********************
           X            0.99999  -0.00035   0.00373
           Y            0.00036   1.00000  -0.00265
           Z           -0.00373   0.00265   0.99999
 This molecule is an asymmetric top.
 Rotational symmetry number  1.
 Warning -- assumption of classical behavior for rotation
           may cause significant error
 Rotational temperatures (Kelvin)      0.03109     0.00679     0.00584
 Rotational constants (GHZ):           0.64777     0.14153     0.12165
 Zero-point vibrational energy     907539.2 (Joules/Mol)
                                  216.90707 (Kcal/Mol)
 Warning -- explicit consideration of  34 degrees of freedom as
           vibrations may cause significant error
 Vibrational temperatures:     39.56    53.63    74.93   136.91   172.41
          (Kelvin)            183.22   241.70   282.87   293.25   306.20
                              313.05   373.19   381.89   398.93   418.67
                              466.72   482.66   503.38   560.18   577.97
                              583.00   620.63   648.05   656.76   681.21
                              696.31   706.65   724.73   730.35   762.71
                              786.74   826.15   876.56   892.66   973.21
                              997.59  1011.25  1030.15  1057.96  1100.33
                             1120.95  1141.42  1168.79  1175.77  1181.61
                             1217.77  1244.24  1304.95  1328.38  1336.82
                             1349.29  1364.36  1366.07  1411.56  1420.82
                             1429.71  1437.73  1448.06  1494.38  1508.41
                             1537.44  1595.55  1609.37  1652.27  1674.56
                             1701.40  1713.80  1750.37  1780.93  1785.81
                             1808.59  1809.74  1818.35  1820.80  1877.37
                             1915.49  1948.82  1986.31  1989.50  2019.03
                             2024.49  2047.65  2059.30  2086.34  2088.77
                             2105.27  2113.49  2117.83  2120.07  2140.36
                             2152.83  2165.62  2196.55  2214.99  2239.45
                             2302.27  2368.90  2383.94  2402.61  2441.52
                             2531.50  4384.23  4396.73  4402.47  4490.43
                             4500.45  4504.46  4524.10  4557.87  4560.17
                             4593.58  4598.24  4598.87  4602.76  4607.84
                             4620.45  4621.87  4638.01  4683.19  5243.38

 Zero-point correction=                           0.345663 (Hartree/Particle)
 Thermal correction to Energy=                    0.364805
 Thermal correction to Enthalpy=                  0.365749
 Thermal correction to Gibbs Free Energy=         0.298863
 Sum of electronic and zero-point Energies=           -940.449693
 Sum of electronic and thermal Energies=              -940.430551
 Sum of electronic and thermal Enthalpies=            -940.429607
 Sum of electronic and thermal Free Energies=         -940.496494

                     E (Thermal)             CV                S
                      KCal/Mol        Cal/Mol-Kelvin    Cal/Mol-Kelvin
 Total                  228.919             78.563            140.775
 Electronic               0.000              0.000              0.000
 Translational            0.889              2.981             43.004
 Rotational               0.889              2.981             34.621
 Vibrational            227.141             72.602             63.150
 Vibration     1          0.593              1.984              6.002
 Vibration     2          0.594              1.982              5.399
 Vibration     3          0.596              1.977              4.737
 Vibration     4          0.603              1.953              3.551
 Vibration     5          0.609              1.933              3.103
 Vibration     6          0.611              1.926              2.986
 Vibration     7          0.625              1.882              2.458
 Vibration     8          0.636              1.845              2.165
 Vibration     9          0.639              1.834              2.098
 Vibration    10          0.644              1.821              2.019
 Vibration    11          0.646              1.814              1.979
 Vibration    12          0.668              1.747              1.666
 Vibration    13          0.671              1.736              1.626
 Vibration    14          0.678              1.716              1.550
 Vibration    15          0.687              1.691              1.468
 Vibration    16          0.709              1.627              1.288
 Vibration    17          0.717              1.605              1.234
 Vibration    18          0.727              1.576              1.167
 Vibration    19          0.757              1.493              1.003
 Vibration    20          0.767              1.466              0.956
 Vibration    21          0.770              1.459              0.944
 Vibration    22          0.792              1.402              0.854
 Vibration    23          0.809              1.360              0.795
 Vibration    24          0.815              1.347              0.776
 Vibration    25          0.830              1.309              0.728
 Vibration    26          0.840              1.286              0.699
 Vibration    27          0.847              1.270              0.681
 Vibration    28          0.859              1.242              0.649
 Vibration    29          0.863              1.233              0.639
 Vibration    30          0.885              1.183              0.587
 Vibration    31          0.902              1.147              0.551
 Vibration    32          0.931              1.087              0.496
 Vibration    33          0.968              1.012              0.434
 Vibration    34          0.980              0.989              0.416

 Optimization completed.
    -- Stationary point found.
 Normal termination of Gaussian 16 at Tue Dec  5 12:47:43 2023.
