 Gaussian 16, Revision C.01,
 Gaussian 16:  EM64L-G16RevC.01  3-Jul-2019

 ------------------------------
 #p MN15/6-311++G(d,p) opt freq
 ------------------------------

 ---------------
 name file: 3364
 ---------------
 Symbolic Z-matrix:
 Charge =  0 Multiplicity = 1

 SCF Done:  E(RMN15) =  -841.807701119     A.U. after   16 cycles
 SCF Done:  E(RMN15) =  -841.816145417     A.U. after   15 cycles
 SCF Done:  E(RMN15) =  -841.816824257     A.U. after   14 cycles
 SCF Done:  E(RMN15) =  -841.816927455     A.U. after   12 cycles
 SCF Done:  E(RMN15) =  -841.816953899     A.U. after   12 cycles
 SCF Done:  E(RMN15) =  -841.817057400     A.U. after   14 cycles
 SCF Done:  E(RMN15) =  -841.817069259     A.U. after   17 cycles
 SCF Done:  E(RMN15) =  -841.817752085     A.U. after   14 cycles
 SCF Done:  E(RMN15) =  -841.796223439     A.U. after   17 cycles
 SCF Done:  E(RMN15) =  -841.822393733     A.U. after   16 cycles
 SCF Done:  E(RMN15) =  -841.819449576     A.U. after   16 cycles
 SCF Done:  E(RMN15) =  -841.825174972     A.U. after   14 cycles
 SCF Done:  E(RMN15) =  -841.826237640     A.U. after   12 cycles
 SCF Done:  E(RMN15) =  -841.826125380     A.U. after   15 cycles
 SCF Done:  E(RMN15) =  -841.826579003     A.U. after   12 cycles
 SCF Done:  E(RMN15) =  -841.826587374     A.U. after   10 cycles
 SCF Done:  E(RMN15) =  -841.826594386     A.U. after   11 cycles
 SCF Done:  E(RMN15) =  -841.826595105     A.U. after    9 cycles
 SCF Done:  E(RMN15) =  -841.826595211     A.U. after    9 cycles
 Optimization completed.
    -- Stationary point found.
 Normal termination of Gaussian 16 at Wed Dec  6 23:14:13 2023.

 ----------------------------------------------------------------------
 #P Geom=AllCheck Guess=TCheck SCRF=Check GenChk RMN15/6-311++G(d,p) Fr
 eq
 ----------------------------------------------------------------------

 Structure from the checkpoint file:  "/home/exlonk/in_progress/3364.chk"
 ---------------
 name file: 3364
 ---------------
 Charge =  0 Multiplicity = 1

                         Standard orientation:
 ---------------------------------------------------------------------
 Center     Atomic      Atomic             Coordinates (Angstroms)
 Number     Number       Type             X           Y           Z
 ---------------------------------------------------------------------
      1          8           0        1.151895    1.239922   -0.000427
      2          8           0        2.696644    2.888764    0.000220
      3          8           0       -5.418355    0.588365    0.000204
      4          6           0        2.525546   -0.597240   -0.000164
      5          6           0        1.139319   -0.141588   -0.000472
      6          6           0        3.329537    0.538754    0.000243
      7          6           0        0.014280   -0.873042   -0.000399
      8          6           0       -1.381824   -0.456293   -0.000338
      9          6           0        3.103701   -1.866808   -0.000300
     10          6           0        2.447417    1.718479    0.000073
     11          6           0        4.717879    0.470407    0.000588
     12          6           0        4.491141   -1.944342    0.000044
     13          6           0        5.294881   -0.793087    0.000500
     14          6           0       -1.812987    0.886135   -0.000555
     15          6           0       -2.364327   -1.453050   -0.000017
     16          6           0       -4.126135    0.182359    0.000017
     17          6           0       -3.159096    1.195052   -0.000371
     18          6           0       -3.722997   -1.153409    0.000162
     19          6           0       -6.426728   -0.397773    0.000659
     20          1           0        0.179998   -1.947522   -0.000372
     21          1           0        2.498368   -2.765999   -0.000704
     22          1           0        5.313152    1.375911    0.000910
     23          1           0        4.967716   -2.918074   -0.000074
     24          1           0        6.373185   -0.897540    0.000772
     25          1           0       -1.085000    1.685366   -0.000850
     26          1           0       -2.056933   -2.494458    0.000128
     27          1           0       -3.497202    2.224319   -0.000522
     28          1           0       -4.446176   -1.958613    0.000368
     29          1           0       -6.364255   -1.029031    0.893521
     30          1           0       -6.364823   -1.029290   -0.892059
     31          1           0       -7.377154    0.131190    0.000886
 ---------------------------------------------------------------------

 SCF Done:  E(RMN15) =  -841.826595211     A.U. after    1 cycles

 The electronic state is 1-A.
 Alpha  occ. eigenvalues --  -18.86380 -18.84197 -18.79861 -10.18181 -10.12009
 Alpha  occ. eigenvalues --  -10.11372 -10.09994 -10.07856 -10.07122 -10.07086
 Alpha  occ. eigenvalues --  -10.07052 -10.06779 -10.06526 -10.06277 -10.05859
 Alpha  occ. eigenvalues --  -10.05558 -10.04952 -10.04742 -10.04263  -1.17149
 Alpha  occ. eigenvalues --   -1.12489  -1.08430  -0.93728  -0.91680  -0.86003
 Alpha  occ. eigenvalues --   -0.83772  -0.82270  -0.80668  -0.79061  -0.75401
 Alpha  occ. eigenvalues --   -0.70399  -0.69414  -0.67526  -0.66113  -0.64158
 Alpha  occ. eigenvalues --   -0.61979  -0.59303  -0.56482  -0.55896  -0.53939
 Alpha  occ. eigenvalues --   -0.53758  -0.53429  -0.53011  -0.51088  -0.49998
 Alpha  occ. eigenvalues --   -0.49747  -0.49364  -0.47721  -0.47305  -0.45649
 Alpha  occ. eigenvalues --   -0.44298  -0.44171  -0.43720  -0.42911  -0.42114
 Alpha  occ. eigenvalues --   -0.41755  -0.40873  -0.39875  -0.38425  -0.37442
 Alpha  occ. eigenvalues --   -0.33612  -0.33498  -0.31646  -0.30578  -0.29876
 Alpha  occ. eigenvalues --   -0.24054
 Alpha virt. eigenvalues --   -0.05812  -0.03001   0.00487   0.02195   0.02445
 Alpha virt. eigenvalues --    0.03067   0.04030   0.05080   0.05319   0.05829
 Alpha virt. eigenvalues --    0.06139   0.06726   0.07067   0.07571   0.07771

 Mulliken charges:
               1
     1  O   -0.001241
     2  O   -0.331994
     3  O   -0.125061
     4  C    0.814440
     5  C    0.151821
     6  C   -0.068852
     7  C    0.148645
     8  C    1.019754
     9  C   -0.501431
    10  C    0.356861
    11  C   -0.506827
    12  C   -0.331466
    13  C   -0.173759
    14  C   -0.405253
    15  C   -0.115741
    16  C   -0.340429
    17  C   -0.759648
    18  C   -0.047861
    19  C   -0.216918
    20  H   -0.084909
    21  H    0.097382
    22  H    0.148150
    23  H    0.152023
    24  H    0.137785
    25  H    0.123536
    26  H    0.146708
    27  H    0.169914
    28  H    0.132281
    29  H    0.126101
    30  H    0.126112
    31  H    0.159879
 Sum of Mulliken charges =  -0.00000

 Dipole moment (field-independent basis, Debye):
    X=             -0.8447    Y=             -5.6687    Z=              0.0006  Tot=              5.7313
 Quadrupole moment (field-independent basis, Debye-Ang):
   XX=            -79.3837   YY=           -112.0579   ZZ=           -115.2511
   XY=             -4.0953   XZ=             -0.0025   YZ=             -0.0007

  Exact polarizability:     387.848       7.881     199.977       0.006       0.003     101.441
 Approx polarizability:     421.729      19.661     299.356       0.008       0.005     140.856

                      1                      2                      3
                      A                      A                      A
 Frequencies --     31.5455                40.7378                67.1318
 Red. masses --      4.1372                 4.8189                 6.1041
 Frc consts  --      0.0024                 0.0047                 0.0162
 IR Inten    --      0.3724                 0.4334                 1.2870

                      4                      5                      6
                      A                      A                      A
 Frequencies --     79.9426               119.7565               147.4720
 Red. masses --      3.7414                 4.4614                 7.0342
 Frc consts  --      0.0141                 0.0377                 0.0901
 IR Inten    --      1.0871                 3.5446                 0.0449

                      7                      8                      9
                      A                      A                      A
 Frequencies --    172.5347               194.3914               197.0323
 Red. masses --      6.2711                 5.2136                 4.5799
 Frc consts  --      0.1100                 0.1161                 0.1048
 IR Inten    --      0.0659                 0.1905                 2.4030

                     10                     11                     12
                      A                      A                      A
 Frequencies --    218.9082               272.9415               290.0895
 Red. masses --      3.2555                 1.2778                 6.0383
 Frc consts  --      0.0919                 0.0561                 0.2994
 IR Inten    --      0.7124                 0.2141                 2.5071

                     13                     14                     15
                      A                      A                      A
 Frequencies --    323.9714               374.6413               413.6380
 Red. masses --      4.5498                 4.6317                 3.3644
 Frc consts  --      0.2814                 0.3830                 0.3392
 IR Inten    --     12.2011                 0.3223                 0.6513

                     16                     17                     18
                      A                      A                      A
 Frequencies --    421.7698               440.5251               473.4665
 Red. masses --      3.0624                 5.2718                 4.1354
 Frc consts  --      0.3210                 0.6028                 0.5462
 IR Inten    --      0.0027                 1.6459                 0.5596

                     19                     20                     21
                      A                      A                      A
 Frequencies --    519.0337               536.4540               549.2201
 Red. masses --      5.5420                 2.4112                 6.0374
 Frc consts  --      0.8796                 0.4088                 1.0730
 IR Inten    --     13.6958                23.5148                 6.5317

                     22                     23                     24
                      A                      A                      A
 Frequencies --    581.5708               615.4670               629.1343
 Red. masses --      8.0580                 7.8251                 4.4894
 Frc consts  --      1.6058                 1.7464                 1.0470
 IR Inten    --      7.2572                19.2448                 0.0050

                     25                     26                     27
                      A                      A                      A
 Frequencies --    631.1622               688.3508               699.2030
 Red. masses --      7.3585                 3.9755                 7.5502
 Frc consts  --      1.7271                 1.1098                 2.1748
 IR Inten    --      2.5618                17.1498                 0.9504

                     28                     29                     30
                      A                      A                      A
 Frequencies --    732.9282               752.5725               763.2052
 Red. masses --      3.4441                 2.4579                 6.3655
 Frc consts  --      1.0901                 0.8202                 2.1846
 IR Inten    --      2.5702                52.1357                 3.3237

                     31                     32                     33
                      A                      A                      A
 Frequencies --    779.8433               788.0746               815.2350
 Red. masses --      4.9771                 2.1407                 1.3284
 Frc consts  --      1.7834                 0.7833                 0.5202
 IR Inten    --      5.9413                11.1210                13.9285

                     34                     35                     36
                      A                      A                      A
 Frequencies --    853.8862               864.7239               875.6806
 Red. masses --      1.4731                 5.4008                 7.4505
 Frc consts  --      0.6328                 2.3794                 3.3661
 IR Inten    --     27.6748                 7.4659                20.0617

                     37                     38                     39
                      A                      A                      A
 Frequencies --    885.6130               887.0749               953.7015
 Red. masses --      1.3330                 1.4753                 1.3788
 Frc consts  --      0.6160                 0.6840                 0.7389
 IR Inten    --      0.1218                29.6749                 1.4692

                     40                     41                     42
                      A                      A                      A
 Frequencies --    982.7004               998.4590              1013.1868
 Red. masses --      1.3789                 1.3245                 1.3109
 Frc consts  --      0.7846                 0.7780                 0.7928
 IR Inten    --      0.6584                 0.0176                 0.0081

                     43                     44                     45
                      A                      A                      A
 Frequencies --   1015.9562              1037.9058              1049.2482
 Red. masses --      2.6817                 2.0485                 7.2038
 Frc consts  --      1.6308                 1.3002                 4.6727
 IR Inten    --      1.4630                10.9887               218.2463

                     46                     47                     48
                      A                      A                      A
 Frequencies --   1105.7048              1109.0267              1111.4286
 Red. masses --      4.9122                 1.9420                 3.2072
 Frc consts  --      3.5384                 1.4073                 2.3342
 IR Inten    --     18.1402                70.2303               154.2517

                     49                     50                     51
                      A                      A                      A
 Frequencies --   1133.6445              1167.3658              1167.4419
 Red. masses --      1.3142                 1.1754                 1.2877
 Frc consts  --      0.9951                 0.9437                 1.0340
 IR Inten    --     27.5684                 6.8328                 1.0661

                     52                     53                     54
                      A                      A                      A
 Frequencies --   1189.6146              1195.2278              1200.2233
 Red. masses --      1.1695                 1.4224                 1.9423
 Frc consts  --      0.9751                 1.1972                 1.6485
 IR Inten    --    128.9522                10.1306                27.3346

                     55                     56                     57
                      A                      A                      A
 Frequencies --   1229.4927              1296.8962              1312.6007
 Red. masses --      1.9132                 2.2207                 1.9789
 Frc consts  --      1.7039                 2.2007                 2.0088
 IR Inten    --      3.8115                23.8708               125.4890

                     58                     59                     60
                      A                      A                      A
 Frequencies --   1314.3371              1327.7818              1345.7538
 Red. masses --      6.0443                 1.6128                 3.8902
 Frc consts  --      6.1519                 1.6753                 4.1511
 IR Inten    --    261.0929                13.8219               121.8277

                     61                     62                     63
                      A                      A                      A
 Frequencies --   1369.4411              1391.5003              1457.7891
 Red. masses --      3.2755                 3.5130                 3.2169
 Frc consts  --      3.6193                 4.0077                 4.0279
 IR Inten    --     50.7046                81.7088                26.6429

                     64                     65                     66
                      A                      A                      A
 Frequencies --   1468.0991              1482.7656              1493.6955
 Red. masses --      1.2135                 1.0415                 2.3818
 Frc consts  --      1.5410                 1.3491                 3.1310
 IR Inten    --      7.0219                10.5715                27.4880

                     67                     68                     69
                      A                      A                      A
 Frequencies --   1495.0314              1508.8158              1555.7299
 Red. masses --      1.1380                 3.0134                 2.9808
 Frc consts  --      1.4987                 4.0419                 4.2506
 IR Inten    --     36.6843                39.2624               229.2482

                     70                     71                     72
                      A                      A                      A
 Frequencies --   1627.3836              1657.6214              1670.2750
 Red. masses --      7.0517                 7.7513                 6.6147
 Frc consts  --     11.0033                12.5486                10.8727
 IR Inten    --     33.8215                 4.7449               319.3656

                     73                     74                     75
                      A                      A                      A
 Frequencies --   1679.4955              1742.8149              1891.9208
 Red. masses --      7.1831                 8.9332                13.0690
 Frc consts  --     11.9377                15.9867                27.5612
 IR Inten    --     10.5611                28.6602               733.2787

                     76                     77                     78
                      A                      A                      A
 Frequencies --   3040.4407              3105.4451              3183.3622
 Red. masses --      1.0358                 1.1054                 1.0878
 Frc consts  --      5.6418                 6.2806                 6.4948
 IR Inten    --     79.6429                38.6150                 8.2570

                     79                     80                     81
                      A                      A                      A
 Frequencies --   3184.5041              3193.6056              3207.8462
 Red. masses --      1.0990                 1.0894                 1.0864
 Frc consts  --      6.5663                 6.5461                 6.5866
 IR Inten    --     27.8202                14.5097                 2.2362

                     82                     83                     84
                      A                      A                      A
 Frequencies --   3219.2809              3227.1095              3227.2963
 Red. masses --      1.0899                 1.0944                 1.0905
 Frc consts  --      6.6551                 6.7151                 6.6920
 IR Inten    --      3.2976                10.7412                 5.2693

                     85                     86                     87
                      A                      A                      A
 Frequencies --   3236.9049              3237.1174              3261.3641
 Red. masses --      1.0974                 1.0923                 1.0932
 Frc consts  --      6.7747                 6.7438                 6.8508
 IR Inten    --     20.6397                 9.9306                 3.4723

 - Thermochemistry -
 -------------------
 Temperature   298.150 Kelvin.  Pressure   1.00000 Atm.
 Atom     1 has atomic number  8 and mass  15.99491

 Molecular mass:   252.07864 amu.
 Principal axes and moments of inertia in atomic units:
                           1         2         3
     Eigenvalues --  1537.18244********************
           X            1.00000  -0.00117  -0.00000
           Y            0.00117   1.00000  -0.00000
           Z            0.00000   0.00000   1.00000
 This molecule is an asymmetric top.
 Rotational symmetry number  1.
 Warning -- assumption of classical behavior for rotation
           may cause significant error
 Rotational temperatures (Kelvin)      0.05635     0.00745     0.00658
 Rotational constants (GHZ):           1.17406     0.15519     0.13719
 Zero-point vibrational energy     632844.2 (Joules/Mol)
                                  151.25339 (Kcal/Mol)
 Warning -- explicit consideration of  23 degrees of freedom as
           vibrations may cause significant error
 Vibrational temperatures:     45.39    58.61    96.59   115.02   172.30
          (Kelvin)            212.18   248.24   279.69   283.49   314.96
                              392.70   417.37   466.12   539.03   595.13
                              606.83   633.82   681.21   746.77   771.84
                              790.21   836.75   885.52   905.18   908.10
                              990.38  1006.00  1054.52  1082.78  1098.08
                             1122.02  1133.86  1172.94  1228.55  1244.14
                             1259.91  1274.20  1276.30  1372.16  1413.89
                             1436.56  1457.75  1461.73  1493.32  1509.63
                             1590.86  1595.64  1599.10  1631.06  1679.58
                             1679.69  1711.59  1719.67  1726.85  1768.97
                             1865.94  1888.54  1891.04  1910.38  1936.24
                             1970.32  2002.06  2097.43  2112.27  2133.37
                             2149.09  2151.02  2170.85  2238.35  2341.44
                             2384.95  2403.15  2416.42  2507.52  2722.05
                             4374.52  4468.04  4580.15  4581.79  4594.89
                             4615.38  4631.83  4643.09  4643.36  4657.18
                             4657.49  4692.38

 Zero-point correction=                           0.241038 (Hartree/Particle)
 Thermal correction to Energy=                    0.256333
 Thermal correction to Enthalpy=                  0.257277
 Thermal correction to Gibbs Free Energy=         0.197263
 Sum of electronic and zero-point Energies=           -841.585558
 Sum of electronic and thermal Energies=              -841.570262
 Sum of electronic and thermal Enthalpies=            -841.569318
 Sum of electronic and thermal Free Energies=         -841.629332

                     E (Thermal)             CV                S
                      KCal/Mol        Cal/Mol-Kelvin    Cal/Mol-Kelvin
 Total                  160.851             59.896            126.310
 Electronic               0.000              0.000              0.000
 Translational            0.889              2.981             42.474
 Rotational               0.889              2.981             33.819
 Vibrational            159.074             53.935             50.017
 Vibration     1          0.594              1.983              5.730
 Vibration     2          0.594              1.981              5.223
 Vibration     3          0.598              1.970              4.236
 Vibration     4          0.600              1.963              3.892
 Vibration     5          0.609              1.933              3.104
 Vibration     6          0.617              1.905              2.705
 Vibration     7          0.626              1.876              2.408
 Vibration     8          0.635              1.848              2.186
 Vibration     9          0.636              1.844              2.161
 Vibration    10          0.647              1.812              1.968
 Vibration    11          0.676              1.723              1.578
 Vibration    12          0.686              1.692              1.473
 Vibration    13          0.709              1.627              1.290
 Vibration    14          0.746              1.524              1.061
 Vibration    15          0.777              1.441              0.914
 Vibration    16          0.784              1.423              0.886
 Vibration    17          0.800              1.382              0.825
 Vibration    18          0.830              1.309              0.728
 Vibration    19          0.874              1.208              0.612
 Vibration    20          0.891              1.169              0.573
 Vibration    21          0.904              1.141              0.546
 Vibration    22          0.938              1.071              0.482
 Vibration    23          0.975              0.999              0.424

 Optimization completed.
    -- Stationary point found.
 Normal termination of Gaussian 16 at Wed Dec  6 23:32:26 2023.
