 Gaussian 16, Revision C.01,
 Gaussian 16:  EM64L-G16RevC.01  3-Jul-2019

 ------------------------------
 #p MN15/6-311++G(d,p) opt freq
 ------------------------------

 ---------------
 name file: 3371
 ---------------
 Symbolic Z-matrix:
 Charge =  0 Multiplicity = 1

 SCF Done:  E(RMN15) =  -650.049360795     A.U. after   15 cycles
 SCF Done:  E(RMN15) =  -650.052323716     A.U. after   13 cycles
 SCF Done:  E(RMN15) =  -650.052509952     A.U. after   12 cycles
 SCF Done:  E(RMN15) =  -650.052515240     A.U. after   11 cycles
 SCF Done:  E(RMN15) =  -650.052515731     A.U. after    9 cycles
 Optimization completed.
    -- Stationary point found.
 Normal termination of Gaussian 16 at Tue Dec  5 20:09:28 2023.

 ----------------------------------------------------------------------
 #P Geom=AllCheck Guess=TCheck SCRF=Check GenChk RMN15/6-311++G(d,p) Fr
 eq
 ----------------------------------------------------------------------

 Structure from the checkpoint file:  "/home/exlonk/in_progress/3371.chk"
 ---------------
 name file: 3371
 ---------------
 Charge =  0 Multiplicity = 1

                         Standard orientation:
 ---------------------------------------------------------------------
 Center     Atomic      Atomic             Coordinates (Angstroms)
 Number     Number       Type             X           Y           Z
 ---------------------------------------------------------------------
      1          8           0        0.137222    2.626896    0.000016
      2          8           0        2.999822    1.634095    0.000111
      3          6           0        0.369904   -0.901730   -0.000143
      4          6           0       -1.094336   -0.675904   -0.000135
      5          6           0        1.013203    0.347999   -0.000097
      6          6           0       -1.331854    0.702464   -0.000099
      7          6           0       -0.019675    1.427997   -0.000368
      8          6           0        2.401499    0.426030    0.000076
      9          6           0        1.086999   -2.085233   -0.000087
     10          6           0       -2.155750   -1.568106   -0.000046
     11          6           0       -2.612863    1.223946    0.000088
     12          6           0        3.133983   -0.771789    0.000143
     13          6           0        2.484036   -1.998764    0.000046
     14          6           0       -3.454542   -1.048686    0.000104
     15          6           0       -3.684872    0.327397    0.000180
     16          1           0        0.590842   -3.048550   -0.000106
     17          1           0       -1.991754   -2.640305   -0.000054
     18          1           0       -2.763978    2.297812    0.000101
     19          1           0        4.219401   -0.729948    0.000258
     20          1           0        3.077756   -2.905976    0.000112
     21          1           0       -4.299183   -1.728527    0.000191
     22          1           0       -4.702804    0.699184    0.000298
     23          1           0        3.958976    1.534652    0.000196
 ---------------------------------------------------------------------

 SCF Done:  E(RMN15) =  -650.052515731     A.U. after    1 cycles

 The electronic state is 1-A.
 Alpha  occ. eigenvalues --  -18.84782 -18.79563 -10.13320 -10.13052 -10.07119
 Alpha  occ. eigenvalues --  -10.06825 -10.06525 -10.05986 -10.05962 -10.05874
 Alpha  occ. eigenvalues --  -10.05801 -10.05511 -10.05494 -10.05171 -10.05098
 Alpha  occ. eigenvalues --   -1.12694  -1.08584  -0.94915  -0.91086  -0.85800
 Alpha  occ. eigenvalues --   -0.81705  -0.80195  -0.77905  -0.71931  -0.69680
 Alpha  occ. eigenvalues --   -0.65479  -0.64712  -0.61882  -0.59092  -0.56189
 Alpha  occ. eigenvalues --   -0.54713  -0.53447  -0.50718  -0.50199  -0.49718
 Alpha  occ. eigenvalues --   -0.48395  -0.48373  -0.47181  -0.46080  -0.44984
 Alpha  occ. eigenvalues --   -0.42455  -0.41991  -0.41663  -0.40748  -0.40241
 Alpha  occ. eigenvalues --   -0.39122  -0.33628  -0.30412  -0.29895  -0.28308
 Alpha  occ. eigenvalues --   -0.26899
 Alpha virt. eigenvalues --   -0.06645  -0.02431   0.01410   0.02414   0.03306
 Alpha virt. eigenvalues --    0.04096   0.04330   0.05160   0.05859   0.07159
 Alpha virt. eigenvalues --    0.07302   0.07823   0.08437   0.09731   0.10351

 Mulliken charges:
               1
     1  O   -0.250425
     2  O   -0.204493
     3  C    0.256042
     4  C    0.088748
     5  C    0.506536
     6  C    0.869003
     7  C    0.000240
     8  C   -0.175901
     9  C   -0.746212
    10  C   -0.436950
    11  C   -0.196500
    12  C   -0.107235
    13  C   -0.142400
    14  C   -0.328508
    15  C   -0.156901
    16  H    0.056114
    17  H    0.065992
    18  H    0.129458
    19  H    0.077095
    20  H    0.150426
    21  H    0.141230
    22  H    0.135718
    23  H    0.268922
 Sum of Mulliken charges =   0.00000

 Dipole moment (field-independent basis, Debye):
    X=              1.0270    Y=             -3.9946    Z=              0.0000  Tot=              4.1245
 Quadrupole moment (field-independent basis, Debye-Ang):
   XX=            -60.1247   YY=            -88.9822   ZZ=            -90.5625
   XY=             -1.5089   XZ=              0.0005   YZ=             -0.0007

  Exact polarizability:     228.516      -5.199     171.793      -0.000       0.002      76.504
 Approx polarizability:     282.732      -1.234     263.404       0.000       0.006     107.562

                      1                      2                      3
                      A                      A                      A
 Frequencies --     78.1229               105.6506               141.1438
 Red. masses --      6.3708                 4.4570                 6.2869
 Frc consts  --      0.0229                 0.0293                 0.0738
 IR Inten    --      4.1768                 1.8898                 0.0002

                      4                      5                      6
                      A                      A                      A
 Frequencies --    179.6467               230.1603               260.8777
 Red. masses --      5.3282                 4.1073                 4.3702
 Frc consts  --      0.1013                 0.1282                 0.1752
 IR Inten    --      2.2632                 0.4813                 5.7438

                      7                      8                      9
                      A                      A                      A
 Frequencies --    264.5710               344.2088               362.7670
 Red. masses --      8.7232                 6.9273                 1.1797
 Frc consts  --      0.3598                 0.4836                 0.0915
 IR Inten    --      2.9760                 4.8692                96.1128

                     10                     11                     12
                      A                      A                      A
 Frequencies --    411.5700               434.5659               443.2008
 Red. masses --      3.2346                 7.6036                 4.3811
 Frc consts  --      0.3228                 0.8460                 0.5070
 IR Inten    --      1.9300                 3.0463                 2.7462

                     13                     14                     15
                      A                      A                      A
 Frequencies --    508.8973               517.0283               539.5875
 Red. masses --      4.4295                 3.6943                 7.2884
 Frc consts  --      0.6759                 0.5818                 1.2503
 IR Inten    --     12.1315                 0.0310                 1.5351

                     16                     17                     18
                      A                      A                      A
 Frequencies --    586.5341               618.2036               652.2818
 Red. masses --      7.9282                 4.1181                 6.5294
 Frc consts  --      1.6070                 0.9273                 1.6368
 IR Inten    --      0.9813                 4.7474                 1.9591

                     19                     20                     21
                      A                      A                      A
 Frequencies --    676.2449               687.4261               726.7184
 Red. masses --      3.9131                 6.4416                 2.1583
 Frc consts  --      1.0543                 1.7935                 0.6716
 IR Inten    --     16.2208                 7.0219                 0.3123

                     22                     23                     24
                      A                      A                      A
 Frequencies --    764.7153               768.3276               790.7554
 Red. masses --      1.5329                 6.5972                 1.9067
 Frc consts  --      0.5282                 2.2946                 0.7025
 IR Inten    --     87.5078                 1.7342                38.4961

                     25                     26                     27
                      A                      A                      A
 Frequencies --    821.4683               886.9212               897.7258
 Red. masses --      4.2746                 1.3968                 1.4071
 Frc consts  --      1.6995                 0.6474                 0.6681
 IR Inten    --      0.1180                 0.0012                 0.0200

                     28                     29                     30
                      A                      A                      A
 Frequencies --    904.9307               929.6831               978.6838
 Red. masses --      6.3550                 7.3477                 1.4008
 Frc consts  --      3.0661                 3.7417                 0.7905
 IR Inten    --     62.3563                15.1742                 1.1797

                     31                     32                     33
                      A                      A                      A
 Frequencies --    985.1449              1012.7257              1038.8933
 Red. masses --      1.3122                 1.3160                 1.9631
 Frc consts  --      0.7503                 0.7952                 1.2484
 IR Inten    --      0.3280                 0.0138                 1.1985

                     34                     35                     36
                      A                      A                      A
 Frequencies --   1072.0294              1086.3130              1118.6511
 Red. masses --      2.4641                 2.3392                 1.7059
 Frc consts  --      1.6685                 1.6264                 1.2578
 IR Inten    --      0.4611                21.4863                60.9431

                     37                     38                     39
                      A                      A                      A
 Frequencies --   1157.4039              1163.8298              1169.8269
 Red. masses --      1.6093                 1.1682                 1.2976
 Frc consts  --      1.2701                 0.9323                 1.0463
 IR Inten    --     27.6324                 3.5263                 0.2359

                     40                     41                     42
                      A                      A                      A
 Frequencies --   1203.1491              1221.4072              1298.5079
 Red. masses --      2.5052                 1.9786                 1.7914
 Frc consts  --      2.1367                 1.7391                 1.7796
 IR Inten    --     29.8136                77.3983               104.0657

                     43                     44                     45
                      A                      A                      A
 Frequencies --   1300.5228              1335.4551              1341.1034
 Red. masses --      1.6762                 4.6465                 6.0411
 Frc consts  --      1.6704                 4.8824                 6.4016
 IR Inten    --     13.1695                85.4614                 4.7023

                     46                     47                     48
                      A                      A                      A
 Frequencies --   1407.4874              1473.5798              1489.9030
 Red. masses --      4.0885                 2.8383                 2.9312
 Frc consts  --      4.7720                 3.6312                 3.8337
 IR Inten    --      4.9645                44.4412                21.5161

                     49                     50                     51
                      A                      A                      A
 Frequencies --   1511.5818              1523.8178              1657.8703
 Red. masses --      3.6717                 3.4768                 6.9576
 Frc consts  --      4.9429                 4.7566                11.2671
 IR Inten    --      9.5946                69.4235                32.4520

                     52                     53                     54
                      A                      A                      A
 Frequencies --   1668.4579              1670.1719              1677.0673
 Red. masses --      7.6146                 7.6361                 8.0277
 Frc consts  --     12.4890                12.5501                13.3028
 IR Inten    --     80.0466                56.6268               141.8692

                     55                     56                     57
                      A                      A                      A
 Frequencies --   1834.7450              3187.3509              3201.7372
 Red. masses --     12.9955                 1.0888                 1.0865
 Frc consts  --     25.7747                 6.5174                 6.5625
 IR Inten    --    344.9425                11.9576                 2.4553

                     58                     59                     60
                      A                      A                      A
 Frequencies --   3211.4392              3212.3728              3220.3828
 Red. masses --      1.0893                 1.0895                 1.0936
 Frc consts  --      6.6190                 6.6243                 6.6825
 IR Inten    --      8.8016                 4.3304                12.0709

                     61                     62                     63
                      A                      A                      A
 Frequencies --   3227.1311              3230.8310              3897.5444
 Red. masses --      1.0964                 1.0978                 1.0661
 Frc consts  --      6.7277                 6.7515                 9.5419
 IR Inten    --     16.2942                21.3682               110.2976

 - Thermochemistry -
 -------------------
 Temperature   298.150 Kelvin.  Pressure   1.00000 Atm.
 Atom     1 has atomic number  8 and mass  15.99491

 Molecular mass:   196.05243 amu.
 Principal axes and moments of inertia in atomic units:
                           1         2         3
     Eigenvalues --  1456.898563604.130875061.02940
           X            0.99997  -0.00761  -0.00000
           Y            0.00761   0.99997  -0.00000
           Z            0.00000   0.00000   1.00000
 This molecule is an asymmetric top.
 Rotational symmetry number  1.
 Warning -- assumption of classical behavior for rotation
           may cause significant error
 Rotational temperatures (Kelvin)      0.05945     0.02403     0.01711
 Rotational constants (GHZ):           1.23876     0.50074     0.35660
 Zero-point vibrational energy     456501.3 (Joules/Mol)
                                  109.10642 (Kcal/Mol)
 Warning -- explicit consideration of  17 degrees of freedom as
           vibrations may cause significant error
 Vibrational temperatures:    112.40   152.01   203.07   258.47   331.15
          (Kelvin)            375.34   380.66   495.24   521.94   592.16
                              625.24   637.67   732.19   743.89   776.35
                              843.89   889.46   938.49   972.97   989.05
                             1045.59  1100.25  1105.45  1137.72  1181.91
                             1276.08  1291.63  1301.99  1337.61  1408.11
                             1417.40  1457.09  1494.74  1542.41  1562.96
                             1609.49  1665.25  1674.49  1683.12  1731.06
                             1757.33  1868.26  1871.16  1921.42  1929.55
                             2025.06  2120.15  2143.64  2174.83  2192.43
                             2385.31  2400.54  2403.00  2412.93  2639.79
                             4585.89  4606.59  4620.54  4621.89  4633.41
                             4643.12  4648.45  5607.70

 Zero-point correction=                           0.173872 (Hartree/Particle)
 Thermal correction to Energy=                    0.184827
 Thermal correction to Enthalpy=                  0.185771
 Thermal correction to Gibbs Free Energy=         0.137189
 Sum of electronic and zero-point Energies=           -649.878644
 Sum of electronic and thermal Energies=              -649.867689
 Sum of electronic and thermal Enthalpies=            -649.866745
 Sum of electronic and thermal Free Energies=         -649.915327

                     E (Thermal)             CV                S
                      KCal/Mol        Cal/Mol-Kelvin    Cal/Mol-Kelvin
 Total                  115.980             44.629            102.250
 Electronic               0.000              0.000              0.000
 Translational            0.889              2.981             41.725
 Rotational               0.889              2.981             31.653
 Vibrational            114.203             38.668             28.873
 Vibration     1          0.599              1.964              3.937
 Vibration     2          0.605              1.945              3.347
 Vibration     3          0.615              1.912              2.788
 Vibration     4          0.629              1.867              2.332
 Vibration     5          0.652              1.795              1.878
 Vibration     6          0.669              1.744              1.656
 Vibration     7          0.671              1.738              1.631
 Vibration     8          0.723              1.587              1.193
 Vibration     9          0.737              1.549              1.110
 Vibration    10          0.776              1.445              0.921
 Vibration    11          0.795              1.395              0.844
 Vibration    12          0.803              1.376              0.817
 Vibration    13          0.864              1.230              0.636
 Vibration    14          0.872              1.212              0.617
 Vibration    15          0.895              1.163              0.566
 Vibration    16          0.944              1.061              0.473
 Vibration    17          0.978              0.993              0.419

 Optimization completed.
    -- Stationary point found.
 Normal termination of Gaussian 16 at Tue Dec  5 20:19:16 2023.
