 Gaussian 16, Revision C.01,
 Gaussian 16:  EM64L-G16RevC.01  3-Jul-2019

 ------------------------------
 #p MN15/6-311++G(d,p) opt freq
 ------------------------------

 ---------------
 name file: 3372
 ---------------
 Symbolic Z-matrix:
 Charge =  0 Multiplicity = 1

 SCF Done:  E(RMN15) =  -689.303173733     A.U. after   15 cycles
 SCF Done:  E(RMN15) =  -689.307655569     A.U. after   13 cycles
 SCF Done:  E(RMN15) =  -689.308073776     A.U. after   13 cycles
 SCF Done:  E(RMN15) =  -689.308129080     A.U. after   11 cycles
 SCF Done:  E(RMN15) =  -689.308130615     A.U. after   10 cycles
 SCF Done:  E(RMN15) =  -689.308132014     A.U. after    9 cycles
 Optimization completed.
    -- Stationary point found.
 Normal termination of Gaussian 16 at Thu Dec  7 12:48:28 2023.

 ----------------------------------------------------------------------
 #P Geom=AllCheck Guess=TCheck SCRF=Check GenChk RMN15/6-311++G(d,p) Fr
 eq
 ----------------------------------------------------------------------

 Structure from the checkpoint file:  "/home/exlonk/in_progress/3372.chk"
 ---------------
 name file: 3372
 ---------------
 Charge =  0 Multiplicity = 1

                         Standard orientation:
 ---------------------------------------------------------------------
 Center     Atomic      Atomic             Coordinates (Angstroms)
 Number     Number       Type             X           Y           Z
 ---------------------------------------------------------------------
      1          8           0        2.809401   -1.166559   -0.000153
      2          8           0        0.128199   -2.498208   -0.000147
      3          6           0       -0.093180    1.028638    0.000314
      4          6           0       -1.516800    0.617863    0.000240
      5          6           0        0.706022   -0.123528    0.000207
      6          6           0       -1.574423   -0.779256    0.000094
      7          6           0       -0.178428   -1.328257    0.000606
      8          6           0        2.098552   -0.027076   -0.000052
      9          6           0        0.466021    2.296525    0.000292
     10          6           0       -2.684134    1.365671    0.000108
     11          6           0       -2.776827   -1.462144   -0.000290
     12          6           0        2.671148    1.256372   -0.000096
     13          6           0        1.859588    2.387811    0.000100
     14          6           0       -3.905315    0.682775   -0.000213
     15          6           0       -3.955908   -0.711372   -0.000426
     16          6           0        4.219082   -1.086666   -0.000198
     17          1           0       -0.149896    3.188125    0.000341
     18          1           0       -2.660077    2.450090    0.000173
     19          1           0       -2.787953   -2.546530   -0.000368
     20          1           0        3.746342    1.378295   -0.000260
     21          1           0        2.331340    3.364285    0.000039
     22          1           0       -4.830743    1.247774   -0.000347
     23          1           0       -4.917364   -1.211518   -0.000669
     24          1           0        4.587201   -0.572284   -0.893886
     25          1           0        4.580716   -2.112097   -0.000134
     26          1           0        4.587244   -0.572153    0.893396
 ---------------------------------------------------------------------

 SCF Done:  E(RMN15) =  -689.308132014     A.U. after    1 cycles

 The electronic state is 1-A.
 Alpha  occ. eigenvalues --  -18.84476 -18.79358 -10.13107 -10.12597 -10.10021
 Alpha  occ. eigenvalues --  -10.06836 -10.06473 -10.06311 -10.05810 -10.05690
 Alpha  occ. eigenvalues --  -10.05624 -10.05494 -10.05337 -10.05201 -10.04903
 Alpha  occ. eigenvalues --  -10.04888  -1.13040  -1.08368  -0.94708  -0.90900
 Alpha  occ. eigenvalues --   -0.85548  -0.82265  -0.80708  -0.77680  -0.75798
 Alpha  occ. eigenvalues --   -0.71122  -0.68100  -0.64977  -0.62790  -0.61747
 Alpha  occ. eigenvalues --   -0.57534  -0.56031  -0.54780  -0.53334  -0.53330
 Alpha  occ. eigenvalues --   -0.50763  -0.50006  -0.48947  -0.48206  -0.48154
 Alpha  occ. eigenvalues --   -0.47141  -0.45998  -0.43419  -0.42835  -0.42100
 Alpha  occ. eigenvalues --   -0.41782  -0.40813  -0.39232  -0.38411  -0.38347
 Alpha  occ. eigenvalues --   -0.33349  -0.30221  -0.29621  -0.27626  -0.26690
 Alpha virt. eigenvalues --   -0.06478  -0.02110   0.01525   0.02745   0.03462
 Alpha virt. eigenvalues --    0.04331   0.04736   0.05331   0.05810   0.06841
 Alpha virt. eigenvalues --    0.06850   0.07356   0.07692   0.07995   0.09209

 Mulliken charges:
               1
     1  O   -0.094707
     2  O   -0.257236
     3  C    0.392190
     4  C    0.051963
     5  C    0.406231
     6  C    0.773698
     7  C   -0.250444
     8  C    0.054558
     9  C   -0.293186
    10  C   -0.334773
    11  C   -0.486974
    12  C    0.028347
    13  C   -0.512599
    14  C   -0.338363
    15  C   -0.162855
    16  C   -0.184126
    17  H    0.055252
    18  H    0.062423
    19  H    0.127291
    20  H    0.120644
    21  H    0.150837
    22  H    0.140489
    23  H    0.135879
    24  H    0.122633
    25  H    0.170164
    26  H    0.122663
 Sum of Mulliken charges =  -0.00000

 Dipole moment (field-independent basis, Debye):
    X=              0.9539    Y=              3.5243    Z=              0.0004  Tot=              3.6511
 Quadrupole moment (field-independent basis, Debye-Ang):
   XX=            -66.5494   YY=            -92.9247   ZZ=            -96.8160
   XY=              1.2197   XZ=              0.0006   YZ=             -0.0012

  Exact polarizability:     248.140       6.054     184.770       0.003       0.009      86.800
 Approx polarizability:     296.359       2.188     279.239       0.002       0.019     121.397

                      1                      2                      3
                      A                      A                      A
 Frequencies --     56.4045               103.8725               109.1715
 Red. masses --      4.1784                 4.2730                 4.2632
 Frc consts  --      0.0078                 0.0272                 0.0299
 IR Inten    --      5.2691                 1.5667                 0.1213

                      4                      5                      6
                      A                      A                      A
 Frequencies --    141.9058               147.1970               215.9658
 Red. masses --      5.6188                 4.5804                 2.1697
 Frc consts  --      0.0667                 0.0585                 0.0596
 IR Inten    --      0.3528                 1.7314                 0.1726

                      7                      8                      9
                      A                      A                      A
 Frequencies --    247.9276               274.9830               282.6901
 Red. masses --      5.6068                 2.6850                 1.9223
 Frc consts  --      0.2031                 0.1196                 0.0905
 IR Inten    --      2.4871                 0.0045                 0.4236

                     10                     11                     12
                      A                      A                      A
 Frequencies --    307.4079               341.0541               412.7579
 Red. masses --      4.9120                 5.1295                 3.2746
 Frc consts  --      0.2735                 0.3515                 0.3287
 IR Inten    --      4.1678                 1.2494                 0.3245

                     13                     14                     15
                      A                      A                      A
 Frequencies --    422.4739               447.0572               519.3483
 Red. masses --      7.2102                 4.3472                 3.6735
 Frc consts  --      0.7582                 0.5119                 0.5838
 IR Inten    --      1.3870                 3.8008                 0.0015

                     16                     17                     18
                      A                      A                      A
 Frequencies --    531.6831               577.4980               588.4913
 Red. masses --      6.6804                 6.9416                 5.6440
 Frc consts  --      1.1127                 1.3640                 1.1516
 IR Inten    --      2.0087                 0.2185                 2.3786

                     19                     20                     21
                      A                      A                      A
 Frequencies --    624.5870               648.7845               682.4118
 Red. masses --      4.1930                 6.5806                 3.8780
 Frc consts  --      0.9638                 1.6320                 1.0640
 IR Inten    --      2.4578                 2.7118                17.2396

                     22                     23                     24
                      A                      A                      A
 Frequencies --    691.5404               731.7949               765.9951
 Red. masses --      5.9774                 1.9837                 1.5122
 Frc consts  --      1.6842                 0.6259                 0.5228
 IR Inten    --     11.3551                 2.3187                80.3850

                     25                     26                     27
                      A                      A                      A
 Frequencies --    766.6323               794.3293               826.2169
 Red. masses --      6.5135                 2.0030                 4.4467
 Frc consts  --      2.2555                 0.7446                 1.7884
 IR Inten    --      1.0004                37.1350                 1.8957

                     28                     29                     30
                      A                      A                      A
 Frequencies --    884.9222               888.1690               897.9504
 Red. masses --      5.5902                 1.4002                 1.4155
 Frc consts  --      2.5792                 0.6508                 0.6725
 IR Inten    --     21.0163                 0.0278                 0.0522

                     31                     32                     33
                      A                      A                      A
 Frequencies --    920.6021               978.0576               990.3128
 Red. masses --      7.3326                 1.4033                 1.3218
 Frc consts  --      3.6614                 0.7909                 0.7638
 IR Inten    --     44.2687                 1.1735                 0.3919

                     34                     35                     36
                      A                      A                      A
 Frequencies --   1012.4622              1037.8061              1068.8554
 Red. masses --      1.3185                 2.0641                 4.0630
 Frc consts  --      0.7963                 1.3098                 2.7349
 IR Inten    --      0.0117                 5.6722                18.0966

                     37                     38                     39
                      A                      A                      A
 Frequencies --   1085.6847              1105.0116              1155.4145
 Red. masses --      2.1666                 2.1744                 1.7715
 Frc consts  --      1.5046                 1.5643                 1.3933
 IR Inten    --     30.7632                 3.1888                60.5161

                     40                     41                     42
                      A                      A                      A
 Frequencies --   1162.9633              1166.6404              1167.7638
 Red. masses --      1.4851                 1.2860                 1.5954
 Frc consts  --      1.1834                 1.0313                 1.2818
 IR Inten    --     10.9734                 1.1486                 8.4227

                     43                     44                     45
                      A                      A                      A
 Frequencies --   1189.7939              1193.5656              1207.4475
 Red. masses --      1.7700                 1.3840                 2.7016
 Frc consts  --      1.4763                 1.1617                 2.3206
 IR Inten    --      3.1471                 9.0009                83.1946

                     46                     47                     48
                      A                      A                      A
 Frequencies --   1282.3687              1301.6010              1332.0247
 Red. masses --      2.0917                 1.7021                 4.3616
 Frc consts  --      2.0267                 1.6990                 4.5595
 IR Inten    --     42.1858                 4.0705               109.7232

                     49                     50                     51
                      A                      A                      A
 Frequencies --   1354.2051              1403.4403              1463.3340
 Red. masses --      5.3700                 4.1618                 1.5008
 Frc consts  --      5.8022                 4.8297                 1.8934
 IR Inten    --    123.1596                10.2700                22.1916

                     52                     53                     54
                      A                      A                      A
 Frequencies --   1464.7927              1484.5457              1490.4162
 Red. masses --      2.3137                 1.0419                 1.5961
 Frc consts  --      2.9248                 1.3529                 2.0889
 IR Inten    --      4.2599                10.6873                 3.9890

                     55                     56                     57
                      A                      A                      A
 Frequencies --   1492.9908              1507.9407              1530.9145
 Red. masses --      1.4610                 3.3944                 3.0573
 Frc consts  --      1.9187                 4.5477                 4.2217
 IR Inten    --     64.6526                28.7085               136.0917

                     58                     59                     60
                      A                      A                      A
 Frequencies --   1656.6504              1658.4488              1666.4705
 Red. masses --      6.9040                 8.3328                 7.7569
 Frc consts  --     11.1638                13.5035                12.6921
 IR Inten    --     66.5856               188.5018                65.2762

                     61                     62                     63
                      A                      A                      A
 Frequencies --   1673.2920              1832.1331              3043.9823
 Red. masses --      7.7703                13.0012                 1.0358
 Frc consts  --     12.8184                25.7127                 5.6548
 IR Inten    --     43.8391               342.2229                64.2874

                     64                     65                     66
                      A                      A                      A
 Frequencies --   3111.2693              3190.3144              3201.2172
 Red. masses --      1.1056                 1.0991                 1.0864
 Frc consts  --      6.3058                 6.5913                 6.5597
 IR Inten    --     35.4378                17.3750                 2.4174

                     67                     68                     69
                      A                      A                      A
 Frequencies --   3206.6355              3211.3703              3220.0000
 Red. masses --      1.0870                 1.0894                 1.0936
 Frc consts  --      6.5852                 6.6196                 6.6808
 IR Inten    --      5.6089                 3.4953                10.8656

                     70                     71                     72
                      A                      A                      A
 Frequencies --   3223.5698              3230.2812              3241.0063
 Red. masses --      1.0941                 1.0978                 1.0927
 Frc consts  --      6.6983                 6.7491                 6.7626
 IR Inten    --     16.8230                23.7672                 8.3644

 - Thermochemistry -
 -------------------
 Temperature   298.150 Kelvin.  Pressure   1.00000 Atm.
 Atom     1 has atomic number  8 and mass  15.99491

 Molecular mass:   210.06808 amu.
 Principal axes and moments of inertia in atomic units:
                           1         2         3
     Eigenvalues --  1563.781784584.809666137.09477
           X            1.00000  -0.00212  -0.00001
           Y            0.00212   1.00000  -0.00006
           Z            0.00001   0.00006   1.00000
 This molecule is an asymmetric top.
 Rotational symmetry number  1.
 Warning -- assumption of classical behavior for rotation
           may cause significant error
 Rotational temperatures (Kelvin)      0.05539     0.01889     0.01411
 Rotational constants (GHZ):           1.15409     0.39363     0.29407
 Zero-point vibrational energy     531434.0 (Joules/Mol)
                                  127.01576 (Kcal/Mol)
 Warning -- explicit consideration of  18 degrees of freedom as
           vibrations may cause significant error
 Vibrational temperatures:     81.15   149.45   157.07   204.17   211.78
          (Kelvin)            310.73   356.71   395.64   406.73   442.29
                              490.70   593.87   607.85   643.22   747.23
                              764.97   830.89   846.71   898.64   933.46
                              981.84   994.97  1052.89  1102.10  1103.01
                             1142.86  1188.74  1273.21  1277.88  1291.95
                             1324.54  1407.21  1424.84  1456.71  1493.17
                             1537.84  1562.06  1589.87  1662.38  1673.24
                             1678.54  1680.15  1711.85  1717.27  1737.25
                             1845.04  1872.71  1916.49  1948.40  2019.24
                             2105.41  2107.51  2135.93  2144.38  2148.08
                             2169.59  2202.64  2383.55  2386.14  2397.68
                             2407.49  2636.03  4379.61  4476.42  4590.15
                             4605.84  4613.63  4620.45  4632.86  4638.00
                             4647.65  4663.09

 Zero-point correction=                           0.202413 (Hartree/Particle)
 Thermal correction to Energy=                    0.214736
 Thermal correction to Enthalpy=                  0.215680
 Thermal correction to Gibbs Free Energy=         0.163783
 Sum of electronic and zero-point Energies=           -689.105720
 Sum of electronic and thermal Energies=              -689.093396
 Sum of electronic and thermal Enthalpies=            -689.092452
 Sum of electronic and thermal Free Energies=         -689.144349

                     E (Thermal)             CV                S
                      KCal/Mol        Cal/Mol-Kelvin    Cal/Mol-Kelvin
 Total                  134.749             49.051            109.227
 Electronic               0.000              0.000              0.000
 Translational            0.889              2.981             41.931
 Rotational               0.889              2.981             32.154
 Vibrational            132.971             43.090             35.143
 Vibration     1          0.596              1.975              4.579
 Vibration     2          0.605              1.946              3.380
 Vibration     3          0.606              1.942              3.284
 Vibration     4          0.615              1.911              2.778
 Vibration     5          0.617              1.906              2.708
 Vibration     6          0.645              1.817              1.993
 Vibration     7          0.662              1.766              1.745
 Vibration     8          0.677              1.720              1.565
 Vibration     9          0.682              1.706              1.517
 Vibration    10          0.697              1.660              1.376
 Vibration    11          0.721              1.593              1.207
 Vibration    12          0.777              1.443              0.917
 Vibration    13          0.785              1.421              0.884
 Vibration    14          0.806              1.367              0.805
 Vibration    15          0.874              1.207              0.611
 Vibration    16          0.887              1.180              0.583
 Vibration    17          0.934              1.080              0.490
 Vibration    18          0.946              1.056              0.470

 Optimization completed.
    -- Stationary point found.
 Normal termination of Gaussian 16 at Thu Dec  7 13:03:41 2023.
