 Gaussian 16, Revision C.01,
 Gaussian 16:  EM64L-G16RevC.01  3-Jul-2019

 ------------------------------
 #p MN15/6-311++G(d,p) opt freq
 ------------------------------

 ---------------
 name file: 3381
 ---------------
 Symbolic Z-matrix:
 Charge =  0 Multiplicity = 1

 SCF Done:  E(RMN15) =  -1020.98615265     A.U. after   17 cycles
 SCF Done:  E(RMN15) =  -1021.02366653     A.U. after   15 cycles
 SCF Done:  E(RMN15) =  -1021.03457181     A.U. after   15 cycles
 SCF Done:  E(RMN15) =  -1021.03605323     A.U. after   15 cycles
 SCF Done:  E(RMN15) =  -1021.03647782     A.U. after   14 cycles
 SCF Done:  E(RMN15) =  -1021.03710057     A.U. after   16 cycles
 SCF Done:  E(RMN15) =  -1021.03788326     A.U. after   16 cycles
 SCF Done:  E(RMN15) =  -1021.04044851     A.U. after   17 cycles
 SCF Done:  E(RMN15) =  -1021.04141141     A.U. after   17 cycles
 SCF Done:  E(RMN15) =  -1021.04243375     A.U. after   14 cycles
 SCF Done:  E(RMN15) =  -1021.04694854     A.U. after   13 cycles
 SCF Done:  E(RMN15) =  -1021.04696562     A.U. after   13 cycles
 SCF Done:  E(RMN15) =  -1021.04696725     A.U. after   14 cycles
 SCF Done:  E(RMN15) =  -1021.04697836     A.U. after   13 cycles
 SCF Done:  E(RMN15) =  -1021.04697966     A.U. after   12 cycles
 SCF Done:  E(RMN15) =  -1021.04698010     A.U. after   12 cycles
 SCF Done:  E(RMN15) =  -1021.04698041     A.U. after   11 cycles
 SCF Done:  E(RMN15) =  -1021.04698056     A.U. after   11 cycles
 SCF Done:  E(RMN15) =  -1021.04698060     A.U. after    9 cycles
 Optimization completed.
    -- Stationary point found.
 Normal termination of Gaussian 16 at Tue Dec  5 23:01:01 2023.

 ----------------------------------------------------------------------
 #P Geom=AllCheck Guess=TCheck SCRF=Check GenChk RMN15/6-311++G(d,p) Fr
 eq
 ----------------------------------------------------------------------

 Structure from the checkpoint file:  "/home/exlonk/in_progress/3381.chk"
 ---------------
 name file: 3381
 ---------------
 Charge =  0 Multiplicity = 1

                         Standard orientation:
 ---------------------------------------------------------------------
 Center     Atomic      Atomic             Coordinates (Angstroms)
 Number     Number       Type             X           Y           Z
 ---------------------------------------------------------------------
      1          6           0        1.653459   -1.453242   -2.222996
      2          6           0        2.588705   -0.539912   -1.464758
      3          8           0        3.427156    0.136609   -2.043339
      4          5           0        2.428800   -0.495164    0.160213
      5          6           0        3.023727   -1.831366    0.830842
      6          6           0        4.434878   -1.809224    1.366893
      7          8           0        2.356102   -2.855483    0.842861
      8          8           0        3.120654    0.741913    0.651873
      9          6           0        2.560622    1.851732    0.304916
     10          6           0        3.437865    3.052127    0.330552
     11          6           0        1.209629    1.902782   -0.044204
     12          6           0        0.415446    0.774412    0.203087
     13          6           0       -1.052263    0.783025    0.180387
     14          6           0       -1.799777    1.993969    0.162838
     15          6           0       -3.165557    1.958903    0.115874
     16          6           0       -3.865470    0.721970    0.079268
     17          6           0       -5.279870    0.658202    0.026523
     18          6           0       -5.922030   -0.554620   -0.004789
     19          6           0       -5.182573   -1.761964    0.015608
     20          6           0       -3.812916   -1.731261    0.066749
     21          6           0       -3.121548   -0.491323    0.100526
     22          6           0       -1.710294   -0.431115    0.153803
     23          8           0        0.967879   -0.359527    0.489240
     24          1           0        0.660954   -0.984851   -2.248467
     25          1           0        2.001500   -1.608353   -3.244688
     26          1           0        1.538970   -2.402383   -1.691006
     27          1           0        4.493607   -1.112301    2.208656
     28          1           0        5.111001   -1.419696    0.598578
     29          1           0        4.742940   -2.807285    1.679100
     30          1           0        4.005825    3.069609    1.262217
     31          1           0        2.876356    3.976661    0.210300
     32          1           0        4.154373    2.946221   -0.489634
     33          1           0        0.772408    2.841057   -0.348309
     34          1           0       -1.288277    2.947576    0.209613
     35          1           0       -3.738193    2.880397    0.111579
     36          1           0       -5.845124    1.584255    0.011147
     37          1           0       -7.004480   -0.593230   -0.045592
     38          1           0       -5.705860   -2.710453   -0.008981
     39          1           0       -3.235170   -2.649286    0.084060
     40          1           0       -1.131363   -1.348797    0.168563
 ---------------------------------------------------------------------

 SCF Done:  E(RMN15) =  -1021.04698060     A.U. after    1 cycles

 The electronic state is 1-A.
 Alpha  occ. eigenvalues --  -18.85130 -18.84971 -18.77694 -18.77242 -10.16992
 Alpha  occ. eigenvalues --  -10.16921 -10.08819 -10.08586 -10.08164 -10.07934
 Alpha  occ. eigenvalues --  -10.07642 -10.07549 -10.07436 -10.06991 -10.06754
 Alpha  occ. eigenvalues --  -10.06604 -10.06552 -10.06400 -10.06243 -10.06219
 Alpha  occ. eigenvalues --  -10.01806 -10.01648  -6.70734  -1.16046  -1.12092
 Alpha  occ. eigenvalues --   -1.05855  -1.05505  -0.95282  -0.90447  -0.86970
 Alpha  occ. eigenvalues --   -0.84702  -0.82722  -0.79953  -0.79395  -0.77164
 Alpha  occ. eigenvalues --   -0.76747  -0.72681  -0.69731  -0.67859  -0.66658
 Alpha  occ. eigenvalues --   -0.65940  -0.60357  -0.60101  -0.59559  -0.58055
 Alpha  occ. eigenvalues --   -0.56713  -0.56319  -0.54960  -0.53542  -0.51433
 Alpha  occ. eigenvalues --   -0.51313  -0.50515  -0.50137  -0.49083  -0.48699
 Alpha  occ. eigenvalues --   -0.48376  -0.47573  -0.47226  -0.46613  -0.46484
 Alpha  occ. eigenvalues --   -0.45677  -0.45442  -0.45050  -0.44949  -0.43931
 Alpha  occ. eigenvalues --   -0.43571  -0.43155  -0.40740  -0.40307  -0.40038
 Alpha  occ. eigenvalues --   -0.39394  -0.39097  -0.38267  -0.37633  -0.37091
 Alpha  occ. eigenvalues --   -0.35174  -0.32742  -0.29891  -0.27657  -0.27028
 Alpha  occ. eigenvalues --   -0.24488
 Alpha virt. eigenvalues --   -0.08942  -0.03925  -0.01351  -0.00155   0.01712
 Alpha virt. eigenvalues --    0.02063   0.02915   0.03812   0.04439   0.04725
 Alpha virt. eigenvalues --    0.05018   0.05158   0.06052   0.06173   0.06616

 Mulliken charges:
               1
     1  C   -0.417068
     2  C   -0.056092
     3  O   -0.220147
     4  B    0.268477
     5  C    0.087684
     6  C   -0.441314
     7  O   -0.280959
     8  O   -0.021080
     9  C   -0.384740
    10  C   -0.469276
    11  C   -0.048191
    12  C    0.469924
    13  C    1.093643
    14  C   -0.338580
    15  C   -0.507363
    16  C    0.252264
    17  C   -0.430588
    18  C   -0.180175
    19  C   -0.166196
    20  C   -0.194177
    21  C   -0.038553
    22  C   -0.120780
    23  O   -0.048972
    24  H    0.111717
    25  H    0.139607
    26  H    0.165486
    27  H    0.128483
    28  H    0.150383
    29  H    0.146757
    30  H    0.157437
    31  H    0.144920
    32  H    0.189442
    33  H    0.139802
    34  H    0.069314
    35  H    0.132487
    36  H    0.087963
    37  H    0.143923
    38  H    0.143320
    39  H    0.131360
    40  H    0.009859
 Sum of Mulliken charges =  -0.00000

 Dipole moment (field-independent basis, Debye):
    X=             -4.9963    Y=              5.1474    Z=              1.1521  Tot=              7.2654
 Quadrupole moment (field-independent basis, Debye-Ang):
   XX=           -120.3754   YY=           -125.9253   ZZ=           -144.3000
   XY=             11.2766   XZ=              9.0180   YZ=              6.0791

  Exact polarizability:     374.414      40.528     244.730       8.873      -1.847     150.605
 Approx polarizability:     435.320      57.156     347.842       8.527      -8.686     202.210

                      1                      2                      3
                      A                      A                      A
 Frequencies --     24.6226                31.8971                43.6617
 Red. masses --      4.8206                 3.5700                 5.2181
 Frc consts  --      0.0017                 0.0021                 0.0059
 IR Inten    --      0.5495                 0.7704                 2.9087

                      4                      5                      6
                      A                      A                      A
 Frequencies --     55.8597                65.0313                74.9741
 Red. masses --      4.5316                 5.3592                 3.7142
 Frc consts  --      0.0083                 0.0134                 0.0123
 IR Inten    --      1.3165                10.7187                 5.6603

                      7                      8                      9
                      A                      A                      A
 Frequencies --     87.4504               111.6507               115.5187
 Red. masses --      5.6245                 3.8647                 1.5633
 Frc consts  --      0.0253                 0.0284                 0.0123
 IR Inten    --      0.8158                 1.1969                 1.4005

                     10                     11                     12
                      A                      A                      A
 Frequencies --    129.2950               147.3379               150.2621
 Red. masses --      2.0326                 1.1321                 1.1903
 Frc consts  --      0.0200                 0.0145                 0.0158
 IR Inten    --      1.9847                 0.2345                 0.2228

                     13                     14                     15
                      A                      A                      A
 Frequencies --    157.9719               181.2621               208.7161
 Red. masses --      2.8263                 3.6775                 3.8079
 Frc consts  --      0.0416                 0.0712                 0.0977
 IR Inten    --      3.4200                 0.5725                 1.8584

                     16                     17                     18
                      A                      A                      A
 Frequencies --    231.8824               238.5760               263.2125
 Red. masses --      4.4829                 5.0387                 4.9634
 Frc consts  --      0.1420                 0.1690                 0.2026
 IR Inten    --      0.8508                 3.8426                 1.7152

                     19                     20                     21
                      A                      A                      A
 Frequencies --    301.2896               313.5066               340.9687
 Red. masses --      3.9046                 6.4428                 7.5767
 Frc consts  --      0.2088                 0.3731                 0.5190
 IR Inten    --      0.8672                 0.2377                 5.2751

                     22                     23                     24
                      A                      A                      A
 Frequencies --    368.7958               399.1439               405.3289
 Red. masses --      4.7437                 3.3086                 4.1788
 Frc consts  --      0.3801                 0.3106                 0.4045
 IR Inten    --      2.5299                 0.7372                 1.5591

                     25                     26                     27
                      A                      A                      A
 Frequencies --    449.2603               475.4741               482.2141
 Red. masses --      3.7120                 3.3660                 4.0995
 Frc consts  --      0.4414                 0.4483                 0.5616
 IR Inten    --      3.6216                 9.2102                21.3839

                     28                     29                     30
                      A                      A                      A
 Frequencies --    489.0463               506.6625               514.2772
 Red. masses --      3.8250                 3.9147                 6.6252
 Frc consts  --      0.5390                 0.5921                 1.0324
 IR Inten    --      4.4417                 8.5195                 2.7864

                     31                     32                     33
                      A                      A                      A
 Frequencies --    544.4099               568.2319               573.8064
 Red. masses --      4.4222                 3.5708                 3.4444
 Frc consts  --      0.7722                 0.6793                 0.6682
 IR Inten    --     10.4233                 2.3208                13.3964

                     34                     35                     36
                      A                      A                      A
 Frequencies --    587.4408               605.1049               621.7327
 Red. masses --      3.1394                 4.0302                 6.4707
 Frc consts  --      0.6383                 0.8694                 1.4737
 IR Inten    --     13.2495                17.2597                 3.1180

                     37                     38                     39
                      A                      A                      A
 Frequencies --    640.8930               699.9930               739.1016
 Red. masses --      3.2048                 5.2342                 1.8458
 Frc consts  --      0.7756                 1.5111                 0.5941
 IR Inten    --      2.5663                 5.7746                 2.3810

                     40                     41                     42
                      A                      A                      A
 Frequencies --    762.9084               773.5331               785.6261
 Red. masses --      2.5045                 1.6940                 4.3833
 Frc consts  --      0.8588                 0.5972                 1.5940
 IR Inten    --     10.9853                 9.1903                 3.0778

                     43                     44                     45
                      A                      A                      A
 Frequencies --    797.8235               819.4657               831.1158
 Red. masses --      2.8057                 2.0229                 1.6297
 Frc consts  --      1.0522                 0.8004                 0.6632
 IR Inten    --     44.2187                36.1567                15.1415

                     46                     47                     48
                      A                      A                      A
 Frequencies --    862.9309               880.6771               895.4152
 Red. masses --      3.4262                 1.5236                 4.1410
 Frc consts  --      1.5032                 0.6962                 1.9562
 IR Inten    --     23.5366                 7.0036                21.4085

                     49                     50                     51
                      A                      A                      A
 Frequencies --    908.8463               919.5542               943.4791
 Red. masses --      4.9068                 3.6873                 1.9448
 Frc consts  --      2.3880                 1.8370                 1.0200
 IR Inten    --      2.1331                56.1463                14.4049

                     52                     53                     54
                      A                      A                      A
 Frequencies --    950.9864               964.4367               966.5827
 Red. masses --      1.4890                 2.4060                 3.2786
 Frc consts  --      0.7934                 1.3186                 1.8047
 IR Inten    --      8.3695                 8.5230                 1.0933

                     55                     56                     57
                      A                      A                      A
 Frequencies --    982.5672               989.6257               996.3271
 Red. masses --      1.4017                 2.0761                 1.3994
 Frc consts  --      0.7973                 1.1980                 0.8185
 IR Inten    --      1.5880                 2.4461                 5.2741

                     58                     59                     60
                      A                      A                      A
 Frequencies --   1013.1577              1016.0431              1020.7588
 Red. masses --      2.0178                 1.3197                 2.0038
 Frc consts  --      1.2204                 0.8027                 1.2301
 IR Inten    --     11.6478                 0.0704                 9.7354

                     61                     62                     63
                      A                      A                      A
 Frequencies --   1033.2824              1043.7123              1062.9518
 Red. masses --      1.7869                 2.1895                 3.1766
 Frc consts  --      1.1241                 1.4052                 2.1147
 IR Inten    --     31.1393                 2.7810               200.2241

                     64                     65                     66
                      A                      A                      A
 Frequencies --   1118.2545              1150.1916              1158.1291
 Red. masses --      1.8859                 1.4666                 1.2041
 Frc consts  --      1.3895                 1.1432                 0.9515
 IR Inten    --     12.2012                 9.7332                 2.4681

                     67                     68                     69
                      A                      A                      A
 Frequencies --   1169.9206              1198.6420              1203.7513
 Red. masses --      1.2027                 3.2645                 1.3362
 Frc consts  --      0.9699                 2.7634                 1.1408
 IR Inten    --      5.9627                22.9030                79.3260

                     70                     71                     72
                      A                      A                      A
 Frequencies --   1232.4230              1247.1639              1265.5174
 Red. masses --      2.5765                 3.5469                 1.5751
 Frc consts  --      2.3057                 3.2505                 1.4862
 IR Inten    --      9.6365                21.6061                 5.2526

                     73                     74                     75
                      A                      A                      A
 Frequencies --   1279.2584              1352.2423              1360.5721
 Red. masses --      1.7212                 2.0955                 1.3935
 Frc consts  --      1.6596                 2.2576                 1.5198
 IR Inten    --     13.5760               117.7625                82.1755

                     76                     77                     78
                      A                      A                      A
 Frequencies --   1363.5849              1373.1250              1389.2038
 Red. masses --      1.4515                 1.7328                 2.1671
 Frc consts  --      1.5902                 1.9249                 2.4642
 IR Inten    --     30.2502                 4.2079                 1.9850

                     79                     80                     81
                      A                      A                      A
 Frequencies --   1412.4759              1420.4891              1436.6078
 Red. masses --      3.0423                 2.9273                 4.0950
 Frc consts  --      3.5762                 3.4801                 4.9795
 IR Inten    --     49.5831               167.8867                56.7594

                     82                     83                     84
                      A                      A                      A
 Frequencies --   1441.1272              1443.2750              1446.2679
 Red. masses --      1.0583                 1.1559                 1.0497
 Frc consts  --      1.2949                 1.4187                 1.2937
 IR Inten    --      7.5818                81.7357                 9.2749

                     85                     86                     87
                      A                      A                      A
 Frequencies --   1448.7717              1451.4004              1465.2309
 Red. masses --      1.0581                 1.1523                 1.5453
 Frc consts  --      1.3086                 1.4301                 1.9547
 IR Inten    --     19.6853                48.9444                87.7754

                     88                     89                     90
                      A                      A                      A
 Frequencies --   1476.2392              1504.0206              1554.5608
 Red. masses --      2.6263                 2.8720                 4.0375
 Frc consts  --      3.3721                 3.8278                 5.7488
 IR Inten    --     12.3841                46.0197               252.9586

                     91                     92                     93
                      A                      A                      A
 Frequencies --   1574.2270              1602.3899              1640.5500
 Red. masses --      4.7142                 7.6613                 7.9937
 Frc consts  --      6.8832                11.5901                12.6758
 IR Inten    --   1187.6203               322.4077                69.4532

                     94                     95                     96
                      A                      A                      A
 Frequencies --   1660.6804              1691.3506              1762.7113
 Red. masses --      6.0732                 6.8523                11.2262
 Frc consts  --      9.8683                11.5492                20.5516
 IR Inten    --     40.3035                24.3092               273.7101

                     97                     98                     99
                      A                      A                      A
 Frequencies --   1780.4387              3038.7863              3051.7735
 Red. masses --     11.2099                 1.0402                 1.0356
 Frc consts  --     20.9366                 5.6595                 5.6826
 IR Inten    --      9.8854                 7.0787                 3.8901

                    100                    101                    102
                      A                      A                      A
 Frequencies --   3073.4102              3111.9188              3120.1816
 Red. masses --      1.0379                 1.0924                 1.0978
 Frc consts  --      5.7763                 6.2327                 6.2972
 IR Inten    --      0.6185                 9.3284                 9.5158

                    103                    104                    105
                      A                      A                      A
 Frequencies --   3149.0175              3166.4769              3168.1757
 Red. masses --      1.0973                 1.1048                 1.1046
 Frc consts  --      6.4109                 6.5266                 6.5322
 IR Inten    --      4.0998                15.5253                24.3742

                    106                    107                    108
                      A                      A                      A
 Frequencies --   3189.7454              3200.5601              3204.4101
 Red. masses --      1.1043                 1.0870                 1.0886
 Frc consts  --      6.6198                 6.5602                 6.5857
 IR Inten    --      9.6595                 3.7795                 6.2630

                    109                    110                    111
                      A                      A                      A
 Frequencies --   3207.0080              3217.1688              3219.2842
 Red. masses --      1.0886                 1.0916                 1.0942
 Frc consts  --      6.5963                 6.6569                 6.6816
 IR Inten    --      0.1672                 1.2235                17.7585

                    112                    113                    114
                      A                      A                      A
 Frequencies --   3230.4341              3231.9960              3273.0684
 Red. masses --      1.0942                 1.0980                 1.0920
 Frc consts  --      6.7279                 6.7574                 6.8929
 IR Inten    --      8.9577                20.2770                 0.5124

 - Thermochemistry -
 -------------------
 Temperature   298.150 Kelvin.  Pressure   1.00000 Atm.
 Atom     1 has atomic number  6 and mass  12.00000

 Molecular mass:   308.12199 amu.
 Principal axes and moments of inertia in atomic units:
                           1         2         3
     Eigenvalues --  3527.94259********************
           X            0.99998   0.00479   0.00418
           Y           -0.00484   0.99991   0.01242
           Z           -0.00412  -0.01244   0.99991
 This molecule is an asymmetric top.
 Rotational symmetry number  1.
 Warning -- assumption of classical behavior for rotation
           may cause significant error
 Rotational temperatures (Kelvin)      0.02455     0.00699     0.00609
 Rotational constants (GHZ):           0.51156     0.14571     0.12696
 Zero-point vibrational energy     820015.5 (Joules/Mol)
                                  195.98840 (Kcal/Mol)
 Warning -- explicit consideration of  35 degrees of freedom as
           vibrations may cause significant error
 Vibrational temperatures:     35.43    45.89    62.82    80.37    93.57
          (Kelvin)            107.87   125.82   160.64   166.21   186.03
                              211.99   216.19   227.29   260.80   300.30
                              333.63   343.26   378.70   433.49   451.07
                              490.58   530.61   574.28   583.18   646.39
                              684.10   693.80   703.63   728.97   739.93
                              783.28   817.56   825.58   845.20   870.61
                              894.53   922.10  1007.13  1063.40  1097.66
                             1112.94  1130.34  1147.89  1179.03  1195.79
                             1241.57  1267.10  1288.30  1307.63  1323.03
                             1357.46  1368.26  1387.61  1390.70  1413.70
                             1423.85  1433.49  1457.71  1461.86  1468.64
                             1486.66  1501.67  1529.35  1608.92  1654.87
                             1666.29  1683.25  1724.58  1731.93  1773.18
                             1794.39  1820.80  1840.57  1945.58  1957.56
                             1961.89  1975.62  1998.75  2032.24  2043.77
                             2066.96  2073.46  2076.55  2080.86  2084.46
                             2088.24  2108.14  2123.98  2163.95  2236.67
                             2264.96  2305.48  2360.39  2389.35  2433.48
                             2536.15  2561.65  4372.14  4390.82  4421.95
                             4477.36  4489.25  4530.73  4555.85  4558.30
                             4589.33  4604.89  4610.43  4614.17  4628.79
                             4631.83  4647.87  4650.12  4709.22

 Zero-point correction=                           0.312327 (Hartree/Particle)
 Thermal correction to Energy=                    0.334051
 Thermal correction to Enthalpy=                  0.334995
 Thermal correction to Gibbs Free Energy=         0.260190
 Sum of electronic and zero-point Energies=          -1020.734653
 Sum of electronic and thermal Energies=             -1020.712930
 Sum of electronic and thermal Enthalpies=           -1020.711986
 Sum of electronic and thermal Free Energies=        -1020.786791

                     E (Thermal)             CV                S
                      KCal/Mol        Cal/Mol-Kelvin    Cal/Mol-Kelvin
 Total                  209.620             81.726            157.441
 Electronic               0.000              0.000              0.000
 Translational            0.889              2.981             43.072
 Rotational               0.889              2.981             34.784
 Vibrational            207.843             75.764             79.585
 Vibration     1          0.593              1.985              6.221
 Vibration     2          0.594              1.983              5.708
 Vibration     3          0.595              1.980              5.086
 Vibration     4          0.596              1.975              4.598
 Vibration     5          0.597              1.971              4.298
 Vibration     6          0.599              1.966              4.018
 Vibration     7          0.601              1.958              3.716
 Vibration     8          0.607              1.940              3.240
 Vibration     9          0.608              1.937              3.174
 Vibration    10          0.612              1.924              2.957
 Vibration    11          0.617              1.906              2.706
 Vibration    12          0.618              1.902              2.669
 Vibration    13          0.621              1.894              2.574
 Vibration    14          0.630              1.865              2.315
 Vibration    15          0.642              1.827              2.055
 Vibration    16          0.653              1.792              1.864
 Vibration    17          0.657              1.782              1.813
 Vibration    18          0.670              1.740              1.640
 Vibration    19          0.693              1.671              1.410
 Vibration    20          0.701              1.648              1.344
 Vibration    21          0.720              1.594              1.208
 Vibration    22          0.741              1.536              1.085
 Vibration    23          0.765              1.472              0.966
 Vibration    24          0.770              1.459              0.943
 Vibration    25          0.808              1.363              0.798
 Vibration    26          0.832              1.304              0.722
 Vibration    27          0.838              1.289              0.704
 Vibration    28          0.845              1.274              0.686
 Vibration    29          0.862              1.235              0.642
 Vibration    30          0.869              1.218              0.623
 Vibration    31          0.900              1.152              0.556
 Vibration    32          0.924              1.100              0.508
 Vibration    33          0.930              1.088              0.497
 Vibration    34          0.945              1.059              0.472
 Vibration    35          0.964              1.021              0.441

                           ! Non-Optimized Parameters !
 Normal termination of Gaussian 16 at Tue Dec  5 23:43:05 2023.
