 Gaussian 16, Revision C.01,
 Gaussian 16:  EM64L-G16RevC.01  3-Jul-2019

 ------------------------------
 #p MN15/6-311++G(d,p) opt freq
 ------------------------------

 ---------------
 name file: 3384
 ---------------
 Symbolic Z-matrix:
 Charge =  0 Multiplicity = 1

 SCF Done:  E(RMN15) =  -1366.01329532     A.U. after   18 cycles
 SCF Done:  E(RMN15) =  -1366.05472049     A.U. after   17 cycles
 SCF Done:  E(RMN15) =  -1366.06918477     A.U. after   16 cycles
 SCF Done:  E(RMN15) =  -1366.07067195     A.U. after   16 cycles
 SCF Done:  E(RMN15) =  -1366.07127709     A.U. after   17 cycles
 SCF Done:  E(RMN15) =  -1366.07182195     A.U. after   17 cycles
 SCF Done:  E(RMN15) =  -1366.07228155     A.U. after   14 cycles
 SCF Done:  E(RMN15) =  -1366.07237655     A.U. after   14 cycles
 SCF Done:  E(RMN15) =  -1366.07251180     A.U. after   12 cycles
 SCF Done:  E(RMN15) =  -1366.07263036     A.U. after   14 cycles
 SCF Done:  E(RMN15) =  -1366.08012922     A.U. after   14 cycles
 SCF Done:  E(RMN15) =  -1366.08023492     A.U. after   15 cycles
 SCF Done:  E(RMN15) =  -1366.08024684     A.U. after   14 cycles
 SCF Done:  E(RMN15) =  -1366.08026457     A.U. after   14 cycles
 SCF Done:  E(RMN15) =  -1366.08026622     A.U. after   12 cycles
 SCF Done:  E(RMN15) =  -1366.08026762     A.U. after   12 cycles
 SCF Done:  E(RMN15) =  -1366.08026771     A.U. after   11 cycles
 SCF Done:  E(RMN15) =  -1366.08026778     A.U. after   10 cycles
 SCF Done:  E(RMN15) =  -1366.08026784     A.U. after    9 cycles
 Optimization completed.
    -- Stationary point found.
 Normal termination of Gaussian 16 at Tue Dec  5 11:43:08 2023.

 ----------------------------------------------------------------------
 #P Geom=AllCheck Guess=TCheck SCRF=Check GenChk RMN15/6-311++G(d,p) Fr
 eq
 ----------------------------------------------------------------------

 Structure from the checkpoint file:  "/home/exlonk/in_progress/3384.chk"
 ---------------
 name file: 3384
 ---------------
 Charge =  0 Multiplicity = 1

                         Standard orientation:
 ---------------------------------------------------------------------
 Center     Atomic      Atomic             Coordinates (Angstroms)
 Number     Number       Type             X           Y           Z
 ---------------------------------------------------------------------
      1          6           0        1.253493    4.042290    1.386040
      2          6           0       -0.044472    3.425121    0.922285
      3          8           0       -1.102415    4.032724    0.997799
      4          5           0        0.011821    1.976536    0.224767
      5          6           0        0.148367    2.164409   -1.389687
      6          6           0       -1.110553    2.468189   -2.167408
      7          8           0        1.240555    2.098215   -1.937237
      8          8           0        1.190839    1.174839    0.685546
      9          6           0        1.193345   -0.065721    0.313557
     10          6           0        2.500642   -0.726682    0.283765
     11          6           0        2.640792   -2.132872    0.443281
     12          6           0        3.878713   -2.709896    0.376742
     13          6           0        5.038189   -1.924561    0.129874
     14          6           0        6.331249   -2.498412    0.046180
     15          6           0        7.428923   -1.712280   -0.201246
     16          6           0        7.288126   -0.314540   -0.378035
     17          6           0        6.049915    0.268909   -0.300934
     18          6           0        4.897182   -0.518314   -0.041423
     19          6           0        3.610018    0.059495    0.048919
     20          6           0       -0.000281   -0.713442   -0.028575
     21          6           0       -1.212811   -0.062620    0.227124
     22          6           0       -2.524711   -0.719341    0.166599
     23          6           0       -2.659692   -2.135352    0.120946
     24          6           0       -3.899215   -2.706736    0.042307
     25          6           0       -5.073334   -1.905948    0.000820
     26          6           0       -6.369377   -2.472180   -0.083524
     27          6           0       -7.480772   -1.667191   -0.118579
     28          6           0       -7.351238   -0.258002   -0.070435
     29          6           0       -6.109931    0.318105    0.011839
     30          6           0       -4.942595   -0.489497    0.050317
     31          6           0       -3.651219    0.079002    0.135604
     32          8           0       -1.227787    1.193918    0.538726
     33          1           0        1.098755    5.072376    1.707942
     34          1           0        1.984152    3.998335    0.570623
     35          1           0        1.668075    3.445396    2.204283
     36          1           0       -1.718214    1.555798   -2.221286
     37          1           0       -1.707054    3.210638   -1.627310
     38          1           0       -0.877124    2.807395   -3.177101
     39          1           0        1.766678   -2.739381    0.651512
     40          1           0        3.995557   -3.779469    0.516752
     41          1           0        6.437099   -3.570187    0.178933
     42          1           0        8.413396   -2.161400   -0.264861
     43          1           0        8.164757    0.290880   -0.575990
     44          1           0        5.928250    1.338177   -0.437340
     45          1           0        3.477519    1.125526   -0.104585
     46          1           0        0.021318   -1.729043   -0.391404
     47          1           0       -1.779479   -2.764840    0.171499
     48          1           0       -4.005244   -3.786211    0.016377
     49          1           0       -6.467050   -3.552233   -0.120225
     50          1           0       -8.468045   -2.109835   -0.183719
     51          1           0       -8.239258    0.362280   -0.098443
     52          1           0       -5.997405    1.396386    0.050979
     53          1           0       -3.537842    1.157552    0.172750
 ---------------------------------------------------------------------

 SCF Done:  E(RMN15) =  -1366.08026783     A.U. after    1 cycles

 The electronic state is 1-A.
 Alpha  occ. eigenvalues --  -18.84690 -18.84515 -18.77548 -18.76960 -10.16555
 Alpha  occ. eigenvalues --  -10.16467 -10.08620 -10.08301 -10.07902 -10.07711
 Alpha  occ. eigenvalues --  -10.07442 -10.07411 -10.07390 -10.07266 -10.07217
 Alpha  occ. eigenvalues --  -10.07053 -10.06915 -10.06888 -10.06782 -10.06553
 Alpha  occ. eigenvalues --  -10.06471 -10.06394 -10.06357 -10.06254 -10.06202
 Alpha  occ. eigenvalues --  -10.06106 -10.06091 -10.06067 -10.05908 -10.01761
 Alpha  occ. eigenvalues --  -10.01439  -6.70336  -1.15579  -1.11648  -1.05656
 Alpha  occ. eigenvalues --   -1.05202  -0.95054  -0.94718  -0.90319  -0.89765
 Alpha  occ. eigenvalues --   -0.86001  -0.84446  -0.84087  -0.82207  -0.80349
 Alpha  occ. eigenvalues --   -0.79189  -0.78880  -0.77035  -0.76598  -0.73530
 Alpha  occ. eigenvalues --   -0.71365  -0.69081  -0.68625  -0.66932  -0.66470
 Alpha  occ. eigenvalues --   -0.66019  -0.65255  -0.60750  -0.59881  -0.59329
 Alpha  occ. eigenvalues --   -0.58161  -0.57915  -0.56891  -0.56499  -0.55879
 Alpha  occ. eigenvalues --   -0.54728  -0.54336  -0.52712  -0.51246  -0.51068
 Alpha  occ. eigenvalues --   -0.50677  -0.50382  -0.49610  -0.49083  -0.48384
 Alpha  occ. eigenvalues --   -0.48132  -0.48019  -0.47356  -0.47280  -0.46686
 Alpha  occ. eigenvalues --   -0.46463  -0.46245  -0.46048  -0.45423  -0.44937
 Alpha  occ. eigenvalues --   -0.44751  -0.44447  -0.43558  -0.43163  -0.42864
 Alpha  occ. eigenvalues --   -0.40639  -0.40523  -0.40186  -0.39842  -0.39466
 Alpha  occ. eigenvalues --   -0.39169  -0.38955  -0.38603  -0.38022  -0.37398
 Alpha  occ. eigenvalues --   -0.36894  -0.34948  -0.34638  -0.32705  -0.30536
 Alpha  occ. eigenvalues --   -0.29173  -0.27528  -0.27028  -0.26677  -0.24191
 Alpha virt. eigenvalues --   -0.09485  -0.04603  -0.03513  -0.02739   0.00038
 Alpha virt. eigenvalues --    0.00565   0.01937   0.02123   0.02486   0.02885
 Alpha virt. eigenvalues --    0.03323   0.04131   0.04188   0.04897   0.05142

 Mulliken charges:
               1
     1  C   -0.367063
     2  C    0.022893
     3  O   -0.269225
     4  B    0.365506
     5  C   -0.053157
     6  C   -0.398939
     7  O   -0.203002
     8  O    0.079727
     9  C   -0.461636
    10  C    1.137468
    11  C   -0.402688
    12  C   -0.391478
    13  C    0.023959
    14  C   -0.283377
    15  C   -0.227605
    16  C   -0.155479
    17  C   -0.107265
    18  C    0.028218
    19  C   -0.123700
    20  C    0.087269
    21  C    0.235380
    22  C    1.169144
    23  C   -0.500363
    24  C   -0.478975
    25  C    0.296251
    26  C   -0.467457
    27  C   -0.150417
    28  C   -0.144139
    29  C   -0.195754
    30  C   -0.111936
    31  C   -0.119787
    32  O    0.004645
    33  H    0.150971
    34  H    0.141642
    35  H    0.119981
    36  H    0.106193
    37  H    0.161456
    38  H    0.140191
    39  H    0.062803
    40  H    0.136035
    41  H    0.085343
    42  H    0.142341
    43  H    0.142152
    44  H    0.123822
    45  H   -0.058275
    46  H    0.100716
    47  H    0.009169
    48  H    0.151966
    49  H    0.082334
    50  H    0.143828
    51  H    0.142399
    52  H    0.134808
    53  H   -0.056893
 Sum of Mulliken charges =   0.00000

 Dipole moment (field-independent basis, Debye):
    X=             -0.1951    Y=             -7.2039    Z=              0.4145  Tot=              7.2185
 Quadrupole moment (field-independent basis, Debye-Ang):
   XX=           -133.9170   YY=           -184.3141   ZZ=           -199.6677
   XY=              5.1772   XZ=              6.5803   YZ=             -2.5273

  Exact polarizability:     666.152      -2.287     336.762      -4.177      -0.021     194.308
 Approx polarizability:     735.742      -8.041     479.176     -14.475       1.284     273.380

                      1                      2                      3
                      A                      A                      A
 Frequencies --     16.3109                27.0364                33.2705
 Red. masses --      5.3609                 4.3724                 4.4751
 Frc consts  --      0.0008                 0.0019                 0.0029
 IR Inten    --      0.1536                 0.2254                 0.6489

                      4                      5                      6
                      A                      A                      A
 Frequencies --     34.3707                43.1061                49.1496
 Red. masses --      5.8191                 4.6033                 5.3569
 Frc consts  --      0.0041                 0.0050                 0.0076
 IR Inten    --      0.7135                 0.8196                 5.0704

                      7                      8                      9
                      A                      A                      A
 Frequencies --     59.0129                71.8407                84.3034
 Red. masses --      4.8889                 5.4597                 4.9958
 Frc consts  --      0.0100                 0.0166                 0.0209
 IR Inten    --      0.9236                 8.2107                 2.4930

                     10                     11                     12
                      A                      A                      A
 Frequencies --     90.2290               105.2743               138.1908
 Red. masses --      5.5343                 4.7678                 3.0641
 Frc consts  --      0.0265                 0.0311                 0.0345
 IR Inten    --      1.7359                 1.1110                 2.9907

                     13                     14                     15
                      A                      A                      A
 Frequencies --    146.6283               157.0462               162.1195
 Red. masses --      4.2941                 1.1194                 3.2764
 Frc consts  --      0.0544                 0.0163                 0.0507
 IR Inten    --      1.0665                 0.3861                 0.6991

                     16                     17                     18
                      A                      A                      A
 Frequencies --    163.2516               180.3970               187.5061
 Red. masses --      1.5985                 3.7586                 3.6537
 Frc consts  --      0.0251                 0.0721                 0.0757
 IR Inten    --      0.3030                 0.3740                 1.3912

                     19                     20                     21
                      A                      A                      A
 Frequencies --    208.8478               231.5143               235.2846
 Red. masses --      4.3512                 4.3963                 5.3268
 Frc consts  --      0.1118                 0.1388                 0.1737
 IR Inten    --      1.2801                 1.1407                 3.0702

                     22                     23                     24
                      A                      A                      A
 Frequencies --    271.7045               276.4388               307.9869
 Red. masses --      5.5978                 5.8433                 5.0412
 Frc consts  --      0.2435                 0.2631                 0.2817
 IR Inten    --      0.8923                 3.6147                 1.1137

                     25                     26                     27
                      A                      A                      A
 Frequencies --    326.0887               346.7503               369.4692
 Red. masses --      6.3104                 8.4969                 5.4903
 Frc consts  --      0.3953                 0.6019                 0.4416
 IR Inten    --      0.5408                 4.5566                 1.2283

                     28                     29                     30
                      A                      A                      A
 Frequencies --    393.3899               399.9401               408.4448
 Red. masses --      3.4505                 3.2615                 3.9991
 Frc consts  --      0.3146                 0.3074                 0.3931
 IR Inten    --      0.1131                 0.7125                 4.7255

                     31                     32                     33
                      A                      A                      A
 Frequencies --    441.4041               449.5855               476.7501
 Red. masses --      4.3273                 4.3246                 2.7925
 Frc consts  --      0.4968                 0.5150                 0.3740
 IR Inten    --      3.3164                 2.2260                 1.8969

                     34                     35                     36
                      A                      A                      A
 Frequencies --    479.7059               491.2406               495.3168
 Red. masses --      2.6151                 3.7976                 4.2193
 Frc consts  --      0.3546                 0.5399                 0.6099
 IR Inten    --     38.3948                 1.5965                 7.1570

                     37                     38                     39
                      A                      A                      A
 Frequencies --    508.8218               512.3068               515.0650
 Red. masses --      3.8820                 6.8287                 6.4718
 Frc consts  --      0.5922                 1.0560                 1.0116
 IR Inten    --      6.8884                 2.9501                 2.2622

                     40                     41                     42
                      A                      A                      A
 Frequencies --    535.7788               553.6063               567.6704
 Red. masses --      7.1162                 3.7170                 4.4935
 Frc consts  --      1.2036                 0.6712                 0.8532
 IR Inten    --     37.2288                 5.5641                 3.5108

                     43                     44                     45
                      A                      A                      A
 Frequencies --    586.2465               596.2236               617.6847
 Red. masses --      3.0545                 5.2819                 4.5962
 Frc consts  --      0.6185                 1.1063                 1.0332
 IR Inten    --      8.3123                29.7940                 0.4972

                     46                     47                     48
                      A                      A                      A
 Frequencies --    622.2191               623.7035               636.5986
 Red. masses --      5.4138                 6.2822                 3.4295
 Frc consts  --      1.2349                 1.4398                 0.8189
 IR Inten    --      2.3290                 0.4833                 0.2329

                     49                     50                     51
                      A                      A                      A
 Frequencies --    698.8725               710.6001               735.3346
 Red. masses --      5.4212                 3.5573                 3.3889
 Frc consts  --      1.5601                 1.0583                 1.0797
 IR Inten    --      0.3253                22.0318                28.5006

                     52                     53                     54
                      A                      A                      A
 Frequencies --    745.9886               763.1201               763.5747
 Red. masses --      1.6536                 2.2503                 2.5347
 Frc consts  --      0.5422                 0.7721                 0.8707
 IR Inten    --     11.2331                 2.0198                19.0220

                     55                     56                     57
                      A                      A                      A
 Frequencies --    772.0345               775.3709               784.5644
 Red. masses --      1.8205                 2.2246                 4.5502
 Frc consts  --      0.6393                 0.7880                 1.6502
 IR Inten    --     16.4101                 0.8972                 2.0774

                     58                     59                     60
                      A                      A                      A
 Frequencies --    786.0860               817.8118               829.3001
 Red. masses --      4.0047                 1.7651                 1.4631
 Frc consts  --      1.4580                 0.6956                 0.5929
 IR Inten    --      2.4448               115.5280                 5.2002

                     61                     62                     63
                      A                      A                      A
 Frequencies --    832.5924               840.4274               867.9444
 Red. masses --      1.8002                 3.4247                 3.0429
 Frc consts  --      0.7353                 1.4252                 1.3506
 IR Inten    --     16.1849                 0.8567                33.3637

                     64                     65                     66
                      A                      A                      A
 Frequencies --    880.1265               881.5664               895.6395
 Red. masses --      1.5238                 1.6295                 4.6368
 Frc consts  --      0.6954                 0.7461                 2.1915
 IR Inten    --      1.6107                 3.7351                 3.5030

                     67                     68                     69
                      A                      A                      A
 Frequencies --    905.1974               921.3608               934.6925
 Red. masses --      4.0218                 3.9473                 3.5338
 Frc consts  --      1.9416                 1.9743                 1.8190
 IR Inten    --     20.3686                38.6742                 1.5475

                     70                     71                     72
                      A                      A                      A
 Frequencies --    939.7543               946.4268               951.0138
 Red. masses --      1.5636                 2.1360                 1.5512
 Frc consts  --      0.8136                 1.1273                 0.8266
 IR Inten    --      7.7066                19.8061                11.4495

                     73                     74                     75
                      A                      A                      A
 Frequencies --    964.3039               967.8370               982.4260
 Red. masses --      3.0628                 2.8119                 1.5054
 Frc consts  --      1.6780                 1.5518                 0.8561
 IR Inten    --     20.8408                 3.3454                 6.5010

                     76                     77                     78
                      A                      A                      A
 Frequencies --    983.1981               986.8642               995.1871
 Red. masses --      1.3325                 2.2168                 1.3792
 Frc consts  --      0.7589                 1.2720                 0.8048
 IR Inten    --      1.0258                 9.4276                 1.9831

                     79                     80                     81
                      A                      A                      A
 Frequencies --    996.2450              1014.7119              1015.2846
 Red. masses --      1.3887                 1.3491                 2.2160
 Frc consts  --      0.8120                 0.8184                 1.3458
 IR Inten    --      6.8727                 0.7031                11.2840

                     82                     83                     84
                      A                      A                      A
 Frequencies --   1016.0048              1042.5834              1043.6927
 Red. masses --      1.3326                 2.4154                 2.1811
 Frc consts  --      0.8105                 1.5469                 1.3998
 IR Inten    --      0.2965                23.3372                 5.4798

                     85                     86                     87
                      A                      A                      A
 Frequencies --   1045.8978              1117.7494              1118.7906
 Red. masses --      2.4531                 2.0527                 1.9724
 Frc consts  --      1.5811                 1.5110                 1.4546
 IR Inten    --     78.4578                26.6266                29.5546

                     88                     89                     90
                      A                      A                      A
 Frequencies --   1146.5715              1150.1562              1157.0031
 Red. masses --      1.4845                 1.4453                 1.2145
 Frc consts  --      1.1498                 1.1265                 0.9579
 IR Inten    --     21.1966                 2.3263                 1.8269

                     91                     92                     93
                      A                      A                      A
 Frequencies --   1158.3751              1167.3137              1171.3341
 Red. masses --      1.2089                 1.1593                 1.1852
 Frc consts  --      0.9557                 0.9308                 0.9581
 IR Inten    --      6.7819                 4.9240                 1.0722

                     94                     95                     96
                      A                      A                      A
 Frequencies --   1201.2231              1204.9040              1225.0767
 Red. masses --      3.2301                 1.3632                 2.2236
 Frc consts  --      2.7461                 1.1661                 1.9663
 IR Inten    --     21.5601               250.9956                20.7595

                     97                     98                     99
                      A                      A                      A
 Frequencies --   1236.8723              1243.6597              1255.9808
 Red. masses --      2.5122                 3.5971                 1.5462
 Frc consts  --      2.2644                 3.2779                 1.4371
 IR Inten    --     47.3565                24.5079                 2.8376

                    100                    101                    102
                      A                      A                      A
 Frequencies --   1275.7866              1278.5228              1279.3811
 Red. masses --      1.6252                 1.7428                 1.7773
 Frc consts  --      1.5585                 1.6784                 1.7140
 IR Inten    --     23.2986                25.3667                46.2522

                    103                    104                    105
                      A                      A                      A
 Frequencies --   1358.6805              1361.0723              1362.7102
 Red. masses --      1.4806                 1.6973                 2.1472
 Frc consts  --      1.6103                 1.8526                 2.3493
 IR Inten    --    139.8757                 1.6109                16.4078

                    106                    107                    108
                      A                      A                      A
 Frequencies --   1369.2090              1383.4847              1400.9306
 Red. masses --      2.1160                 2.5884                 3.9729
 Frc consts  --      2.3373                 2.9190                 4.5940
 IR Inten    --     16.7780                 1.9414                 3.4349

                    109                    110                    111
                      A                      A                      A
 Frequencies --   1418.2922              1421.0723              1435.5426
 Red. masses --      3.4151                 4.8272                 5.1662
 Frc consts  --      4.0475                 5.7436                 6.2727
 IR Inten    --    234.2296                35.9999                51.3425

                    112                    113                    114
                      A                      A                      A
 Frequencies --   1436.3956              1440.8627              1443.2108
 Red. masses --      4.1699                 1.0603                 1.2043
 Frc consts  --      5.0691                 1.2969                 1.4779
 IR Inten    --     43.7283                12.1264                92.8863

                    115                    116                    117
                      A                      A                      A
 Frequencies --   1445.7215              1447.9060              1468.2299
 Red. masses --      1.0531                 1.0560                 3.0838
 Frc consts  --      1.2969                 1.3044                 3.9168
 IR Inten    --     15.2182                14.7917                19.3466

                    118                    119                    120
                      A                      A                      A
 Frequencies --   1475.4229              1492.4461              1508.7754
 Red. masses --      3.2401                 2.5809                 3.3053
 Frc consts  --      4.1557                 3.3870                 4.4331
 IR Inten    --     18.6925                70.5551                47.4012

                    121                    122                    123
                      A                      A                      A
 Frequencies --   1550.3813              1551.4973              1566.9325
 Red. masses --      4.3864                 4.4154                 4.4435
 Frc consts  --      6.2120                 6.2621                 6.4280
 IR Inten    --    338.6571              1048.0827              1418.4188

                    124                    125                    126
                      A                      A                      A
 Frequencies --   1583.5464              1632.9314              1640.8333
 Red. masses --      7.8357                 7.4052                 8.0264
 Frc consts  --     11.5768                11.6339                12.7320
 IR Inten    --    341.7910                23.9856                49.4525

                    127                    128                    129
                      A                      A                      A
 Frequencies --   1658.2021              1661.8141              1690.3709
 Red. masses --      6.0449                 6.1010                 6.7855
 Frc consts  --      9.7930                 9.9269                11.4233
 IR Inten    --    112.6716                18.5203                71.7289

                    130                    131                    132
                      A                      A                      A
 Frequencies --   1692.4127              1759.8824              1780.3885
 Red. masses --      6.9124                11.1712                11.2046
 Frc consts  --     11.6652                20.3852                20.9255
 IR Inten    --      2.3924               297.2055                17.6292

                    133                    134                    135
                      A                      A                      A
 Frequencies --   3038.2897              3048.3133              3108.1660
 Red. masses --      1.0388                 1.0361                 1.0945
 Frc consts  --      5.6498                 5.6726                 6.2300
 IR Inten    --      6.2030                 3.8168                 7.9701

                    136                    137                    138
                      A                      A                      A
 Frequencies --   3117.3982              3164.4624              3166.8155
 Red. masses --      1.0973                 1.1041                 1.1044
 Frc consts  --      6.2831                 6.5144                 6.5255
 IR Inten    --      9.0867                17.6881                26.7204

                    139                    140                    141
                      A                      A                      A
 Frequencies --   3199.2673              3200.1058              3201.3741
 Red. masses --      1.0869                 1.0870                 1.0873
 Frc consts  --      6.5548                 6.5583                 6.5658
 IR Inten    --      3.7318                 3.7929                 5.3610

                    142                    143                    144
                      A                      A                      A
 Frequencies --   3203.5338              3206.6902              3206.7274
 Red. masses --      1.0884                 1.0883                 1.0885
 Frc consts  --      6.5809                 6.5933                 6.5949
 IR Inten    --      5.8539                 0.0918                 0.1775

                    145                    146                    147
                      A                      A                      A
 Frequencies --   3217.4403              3218.4703              3218.6350
 Red. masses --      1.0916                 1.0943                 1.0918
 Frc consts  --      6.6577                 6.6783                 6.6638
 IR Inten    --      1.5267                18.8973                 2.0658

                    148                    149                    150
                      A                      A                      A
 Frequencies --   3218.9573              3221.2550              3228.5871
 Red. masses --      1.0942                 1.0955                 1.0943
 Frc consts  --      6.6801                 6.6974                 6.7203
 IR Inten    --     18.1593                12.3544                 8.2451

                    151                    152                    153
                      A                      A                      A
 Frequencies --   3231.1798              3231.7161              3276.6006
 Red. masses --      1.0980                 1.0980                 1.0915
 Frc consts  --      6.7544                 6.7563                 6.9041
 IR Inten    --     29.7035                23.1114                 0.1835

 - Thermochemistry -
 -------------------
 Temperature   298.150 Kelvin.  Pressure   1.00000 Atm.
 Atom     1 has atomic number  6 and mass  12.00000

 Molecular mass:   420.15329 amu.
 Principal axes and moments of inertia in atomic units:
                           1         2         3
     Eigenvalues --  6812.08781********************
           X            1.00000   0.00125   0.00173
           Y           -0.00125   1.00000  -0.00206
           Z           -0.00173   0.00206   1.00000
 This molecule is an asymmetric top.
 Rotational symmetry number  1.
 Warning -- assumption of classical behavior for rotation
           may cause significant error
 Rotational temperatures (Kelvin)      0.01271     0.00320     0.00269
 Rotational constants (GHZ):           0.26493     0.06666     0.05610
 Zero-point vibrational energy    1082741.9 (Joules/Mol)
                                  258.78153 (Kcal/Mol)
 Warning -- explicit consideration of  45 degrees of freedom as
           vibrations may cause significant error
 Vibrational temperatures:     23.47    38.90    47.87    49.45    62.02
          (Kelvin)             70.72    84.91   103.36   121.29   129.82
                              151.47   198.83   210.97   225.95   233.25
                              234.88   259.55   269.78   300.49   333.10
                              338.52   390.92   397.73   443.12   469.17
                              498.90   531.58   566.00   575.42   587.66
                              635.08   646.85   685.94   690.19   706.79
                              712.65   732.08   737.10   741.06   770.87
                              796.52   816.75   843.48   857.83   888.71
                              895.23   897.37   915.92  1005.52  1022.40
                             1057.98  1073.31  1097.96  1098.61  1110.79
                             1115.59  1128.81  1131.00  1176.65  1193.18
                             1197.91  1209.19  1248.78  1266.31  1268.38
                             1288.63  1302.38  1325.63  1344.81  1352.10
                             1361.70  1368.30  1387.42  1392.50  1413.49
                             1414.60  1419.88  1431.85  1433.37  1459.94
                             1460.77  1461.80  1500.05  1501.64  1504.81
                             1608.19  1609.69  1649.66  1654.82  1664.67
                             1666.64  1679.50  1685.29  1728.29  1733.59
                             1762.61  1779.58  1789.35  1807.08  1835.57
                             1839.51  1840.74  1954.84  1958.28  1960.64
                             1969.99  1990.53  2015.63  2040.61  2044.61
                             2065.43  2066.65  2073.08  2076.46  2080.07
                             2083.21  2112.46  2122.80  2147.30  2170.79
                             2230.65  2232.26  2254.47  2278.37  2349.42
                             2360.79  2385.78  2390.98  2432.07  2435.00
                             2532.08  2561.58  4371.42  4385.84  4471.96
                             4485.24  4552.96  4556.34  4603.03  4604.24
                             4606.06  4609.17  4613.71  4613.77  4629.18
                             4630.66  4630.90  4631.36  4634.67  4645.22
                             4648.95  4649.72  4714.30

 Zero-point correction=                           0.412395 (Hartree/Particle)
 Thermal correction to Energy=                    0.439814
 Thermal correction to Enthalpy=                  0.440758
 Thermal correction to Gibbs Free Energy=         0.352185
 Sum of electronic and zero-point Energies=          -1365.667873
 Sum of electronic and thermal Energies=             -1365.640454
 Sum of electronic and thermal Enthalpies=           -1365.639509
 Sum of electronic and thermal Free Energies=        -1365.728083

                     E (Thermal)             CV                S
                      KCal/Mol        Cal/Mol-Kelvin    Cal/Mol-Kelvin
 Total                  275.988            106.762            186.419
 Electronic               0.000              0.000              0.000
 Translational            0.889              2.981             43.997
 Rotational               0.889              2.981             37.026
 Vibrational            274.210            100.800            105.396
 Vibration     1          0.593              1.986              7.039
 Vibration     2          0.593              1.984              6.036
 Vibration     3          0.594              1.983              5.624
 Vibration     4          0.594              1.983              5.560
 Vibration     5          0.595              1.980              5.111
 Vibration     6          0.595              1.978              4.851
 Vibration     7          0.596              1.974              4.490
 Vibration     8          0.598              1.967              4.102
 Vibration     9          0.601              1.960              3.788
 Vibration    10          0.602              1.956              3.655
 Vibration    11          0.605              1.945              3.354
 Vibration    12          0.614              1.915              2.829
 Vibration    13          0.617              1.906              2.716
 Vibration    14          0.621              1.895              2.585
 Vibration    15          0.622              1.889              2.525
 Vibration    16          0.623              1.888              2.512
 Vibration    17          0.629              1.866              2.324
 Vibration    18          0.632              1.857              2.252
 Vibration    19          0.642              1.827              2.054
 Vibration    20          0.653              1.793              1.867
 Vibration    21          0.655              1.787              1.838
 Vibration    22          0.675              1.725              1.585
 Vibration    23          0.678              1.717              1.556
 Vibration    24          0.698              1.659              1.373
 Vibration    25          0.710              1.623              1.279
 Vibration    26          0.725              1.582              1.181
 Vibration    27          0.742              1.535              1.082
 Vibration    28          0.761              1.484              0.987
 Vibration    29          0.766              1.470              0.963
 Vibration    30          0.773              1.452              0.932
 Vibration    31          0.801              1.380              0.822
 Vibration    32          0.808              1.362              0.797
 Vibration    33          0.833              1.302              0.719
 Vibration    34          0.836              1.295              0.711
 Vibration    35          0.847              1.269              0.680
 Vibration    36          0.851              1.260              0.670
 Vibration    37          0.864              1.230              0.636
 Vibration    38          0.867              1.223              0.628
 Vibration    39          0.870              1.217              0.622
 Vibration    40          0.891              1.171              0.574
 Vibration    41          0.909              1.132              0.537
 Vibration    42          0.924              1.101              0.509
 Vibration    43          0.943              1.061              0.474
 Vibration    44          0.954              1.040              0.456
 Vibration    45          0.977              0.995              0.420

                           ! Non-Optimized Parameters !
 Normal termination of Gaussian 16 at Tue Dec  5 13:42:07 2023.
