 Gaussian 16, Revision C.01,
 Gaussian 16:  EM64L-G16RevC.01  3-Jul-2019

 ------------------------------
 #p MN15/6-311++G(d,p) opt freq
 ------------------------------

 ---------------
 name file: 3413
 ---------------
 Symbolic Z-matrix:
 Charge =  0 Multiplicity = 1

 SCF Done:  E(RMN15) =  -653.146625675     A.U. after   14 cycles
 SCF Done:  E(RMN15) =  -653.152768288     A.U. after   12 cycles
 SCF Done:  E(RMN15) =  -653.153468448     A.U. after   12 cycles
 SCF Done:  E(RMN15) =  -653.153646473     A.U. after   11 cycles
 SCF Done:  E(RMN15) =  -653.153756195     A.U. after   13 cycles
 SCF Done:  E(RMN15) =  -653.153813037     A.U. after   10 cycles
 SCF Done:  E(RMN15) =  -653.153964004     A.U. after   11 cycles
 SCF Done:  E(RMN15) =  -653.154128317     A.U. after   15 cycles
 SCF Done:  E(RMN15) =  -653.154168217     A.U. after   11 cycles
 SCF Done:  E(RMN15) =  -653.154161923     A.U. after   11 cycles
 SCF Done:  E(RMN15) =  -653.152918426     A.U. after   13 cycles
 SCF Done:  E(RMN15) =  -653.156421043     A.U. after   13 cycles
 SCF Done:  E(RMN15) =  -653.157012700     A.U. after   14 cycles
 SCF Done:  E(RMN15) =  -653.157079735     A.U. after   12 cycles
 SCF Done:  E(RMN15) =  -653.157146839     A.U. after   12 cycles
 SCF Done:  E(RMN15) =  -653.157159736     A.U. after   11 cycles
 SCF Done:  E(RMN15) =  -653.157161937     A.U. after    9 cycles
 SCF Done:  E(RMN15) =  -653.157162379     A.U. after    9 cycles
 SCF Done:  E(RMN15) =  -653.157162424     A.U. after    8 cycles
 Optimization completed.
    -- Stationary point found.
 Normal termination of Gaussian 16 at Thu Dec  7 13:35:28 2023.

 ----------------------------------------------------------------------
 #P Geom=AllCheck Guess=TCheck SCRF=Check GenChk RMN15/6-311++G(d,p) Fr
 eq
 ----------------------------------------------------------------------

 Structure from the checkpoint file:  "/home/exlonk/in_progress/3413.chk"
 ---------------
 name file: 3413
 ---------------
 Charge =  0 Multiplicity = 1

                         Standard orientation:
 ---------------------------------------------------------------------
 Center     Atomic      Atomic             Coordinates (Angstroms)
 Number     Number       Type             X           Y           Z
 ---------------------------------------------------------------------
      1          7           0        2.750049    0.000043    0.000754
      2          7           0       -2.888791   -0.000111    0.000026
      3          6           0        1.367039    0.000063    0.000510
      4          6           0        3.515060    1.177205    0.369543
      5          6           0        3.515137   -1.176545   -0.369776
      6          6           0       -1.469141   -0.000046    0.000190
      7          6           0        0.629666    1.187694    0.182981
      8          6           0        0.629786   -1.187630   -0.182108
      9          6           0       -0.758118    1.183862    0.175067
     10          6           0       -0.757992   -1.183910   -0.174511
     11          6           0        3.802779    2.094956   -0.816285
     12          6           0        3.804182   -2.095160    0.815044
     13          6           0       -3.690287   -0.722376   -0.854223
     14          6           0       -3.690562    0.722037    0.854115
     15          6           0       -5.001665   -0.459567   -0.543745
     16          6           0       -5.001840    0.459379    0.543086
     17          1           0        2.993151    1.717521    1.164699
     18          1           0        4.456713    0.833260    0.811780
     19          1           0        2.992727   -1.716382   -1.164937
     20          1           0        4.456318   -0.831943   -0.812512
     21          1           0        1.139483    2.135844    0.297111
     22          1           0        1.139722   -2.135744   -0.296030
     23          1           0       -1.298997    2.118243    0.280399
     24          1           0       -1.298782   -2.118332   -0.279946
     25          1           0        4.365612    1.556775   -1.583931
     26          1           0        2.872171    2.444132   -1.269787
     27          1           0        4.388883    2.965304   -0.511202
     28          1           0        4.367394   -1.557350    1.582671
     29          1           0        2.874081   -2.445076    1.269014
     30          1           0        4.390394   -2.965022    0.508780
     31          1           0       -3.252139   -1.330744   -1.629816
     32          1           0       -3.252669    1.330348    1.629896
     33          1           0       -5.863396   -0.869576   -1.047255
     34          1           0       -5.863734    0.869447    1.046269
 ---------------------------------------------------------------------

 SCF Done:  E(RMN15) =  -653.157162424     A.U. after    1 cycles

 The electronic state is 1-A.
 Alpha  occ. eigenvalues --  -14.13204 -14.10536 -10.08996 -10.08011 -10.08008
 Alpha  occ. eigenvalues --  -10.07655 -10.04909 -10.04905 -10.04632 -10.04630
 Alpha  occ. eigenvalues --  -10.04100 -10.04100 -10.03566 -10.03565 -10.01443
 Alpha  occ. eigenvalues --  -10.01386  -1.02984  -1.00315  -0.90468  -0.84001
 Alpha  occ. eigenvalues --   -0.82752  -0.79537  -0.79464  -0.75877  -0.74851
 Alpha  occ. eigenvalues --   -0.69605  -0.68133  -0.65639  -0.62632  -0.60296
 Alpha  occ. eigenvalues --   -0.60250  -0.58240  -0.56684  -0.54563  -0.50955
 Alpha  occ. eigenvalues --   -0.50445  -0.48881  -0.48810  -0.47797  -0.46699
 Alpha  occ. eigenvalues --   -0.46306  -0.45529  -0.44946  -0.44559  -0.42806
 Alpha  occ. eigenvalues --   -0.42397  -0.41940  -0.41849  -0.41354  -0.40811
 Alpha  occ. eigenvalues --   -0.39444  -0.39410  -0.37667  -0.33920  -0.29466
 Alpha  occ. eigenvalues --   -0.27884  -0.24426  -0.22162
 Alpha virt. eigenvalues --    0.00568   0.01772   0.02451   0.04054   0.04145
 Alpha virt. eigenvalues --    0.04510   0.05337   0.05568   0.06327   0.06543
 Alpha virt. eigenvalues --    0.06923   0.07053   0.07145   0.07662   0.07985

 Mulliken charges:
               1
     1  N    0.144535
     2  N    0.391272
     3  C    0.002088
     4  C   -0.235239
     5  C   -0.235233
     6  C   -0.601985
     7  C   -0.135768
     8  C   -0.135531
     9  C   -0.052117
    10  C   -0.052706
    11  C   -0.265782
    12  C   -0.265838
    13  C   -0.086795
    14  C   -0.087043
    15  C   -0.196128
    16  C   -0.195828
    17  H    0.117720
    18  H    0.121756
    19  H    0.117755
    20  H    0.121619
    21  H    0.082384
    22  H    0.082418
    23  H    0.146730
    24  H    0.146718
    25  H    0.105884
    26  H    0.105325
    27  H    0.118824
    28  H    0.105944
    29  H    0.105369
    30  H    0.118782
    31  H    0.092477
    32  H    0.092469
    33  H    0.112961
    34  H    0.112960
 Sum of Mulliken charges =  -0.00000

 Dipole moment (field-independent basis, Debye):
    X=              4.2843    Y=              0.0007    Z=             -0.0010  Tot=              4.2843
 Quadrupole moment (field-independent basis, Debye-Ang):
   XX=            -95.1459   YY=            -92.7760   ZZ=           -100.8270
   XY=              0.0015   XZ=             -0.0036   YZ=              4.9330

  Exact polarizability:     274.283      -0.002     165.879       0.003      11.995     128.347
 Approx polarizability:     299.220      -0.004     227.233       0.011      25.627     176.317

                      1                      2                      3
                      A                      A                      A
 Frequencies --     36.1068                47.4738                76.4854
 Red. masses --      3.8258                 3.3227                 4.2720
 Frc consts  --      0.0029                 0.0044                 0.0147
 IR Inten    --      0.5943                 0.3805                 0.2572

                      4                      5                      6
                      A                      A                      A
 Frequencies --     77.1398                86.7702               120.6862
 Red. masses --      3.1574                 4.1693                 3.0184
 Frc consts  --      0.0111                 0.0185                 0.0259
 IR Inten    --      0.2600                 0.0680                 0.5668

                      7                      8                      9
                      A                      A                      A
 Frequencies --    126.7388               188.6284               221.0157
 Red. masses --      3.1468                 2.9387                 1.4510
 Frc consts  --      0.0298                 0.0616                 0.0418
 IR Inten    --      0.0282                 0.0175                 0.0333

                     10                     11                     12
                      A                      A                      A
 Frequencies --    224.9124               265.2170               275.9242
 Red. masses --      1.0285                 4.1561                 2.2106
 Frc consts  --      0.0307                 0.1722                 0.0992
 IR Inten    --      0.2738                 0.1007                 0.3586

                     13                     14                     15
                      A                      A                      A
 Frequencies --    336.0257               372.9489               394.5155
 Red. masses --      2.8471                 3.7325                 4.6319
 Frc consts  --      0.1894                 0.3059                 0.4248
 IR Inten    --      0.0491                 4.9401                 0.2485

                     16                     17                     18
                      A                      A                      A
 Frequencies --    425.7891               455.3172               462.9587
 Red. masses --      3.0543                 4.0449                 2.5034
 Frc consts  --      0.3262                 0.4941                 0.3161
 IR Inten    --      0.0592                 2.7096                 2.6972

                     19                     20                     21
                      A                      A                      A
 Frequencies --    517.9137               545.3431               588.6476
 Red. masses --      2.6226                 2.4549                 3.4507
 Frc consts  --      0.4145                 0.4301                 0.7045
 IR Inten    --     14.1878                 6.0642                13.8747

                     22                     23                     24
                      A                      A                      A
 Frequencies --    619.0510               621.2841               650.0514
 Red. masses --      3.0200                 4.7503                 4.2614
 Frc consts  --      0.6819                 1.0803                 1.0610
 IR Inten    --      1.6274                 3.5142                 9.3562

                     25                     26                     27
                      A                      A                      A
 Frequencies --    712.4050               730.2622               735.7368
 Red. masses --      1.2886                 3.4601                 1.2225
 Frc consts  --      0.3853                 1.0872                 0.3899
 IR Inten    --      0.6457                 0.5623               108.5903

                     28                     29                     30
                      A                      A                      A
 Frequencies --    749.0485               781.3749               786.1890
 Red. masses --      3.9122                 1.1263                 1.1914
 Frc consts  --      1.2933                 0.4052                 0.4339
 IR Inten    --      3.1194                 2.1917                 6.0738

                     31                     32                     33
                      A                      A                      A
 Frequencies --    815.9591               834.0875               854.6375
 Red. masses --      1.2387                 1.7236                 1.3646
 Frc consts  --      0.4859                 0.7065                 0.5873
 IR Inten    --      0.2567                51.6508                 3.1084

                     34                     35                     36
                      A                      A                      A
 Frequencies --    872.3335               898.2027               912.2570
 Red. masses --      5.6881                 1.3288                 2.2379
 Frc consts  --      2.5502                 0.6316                 1.0973
 IR Inten    --      0.1386                 0.0830                 0.0566

                     37                     38                     39
                      A                      A                      A
 Frequencies --    932.4270               937.8982               956.0181
 Red. masses --      3.6902                 1.9403                 1.3686
 Frc consts  --      1.8903                 1.0056                 0.7370
 IR Inten    --      7.4210                 0.9082                 0.9254

                     40                     41                     42
                      A                      A                      A
 Frequencies --    968.1394              1007.5137              1038.4621
 Red. masses --      1.3215                 2.5169                 2.1769
 Frc consts  --      0.7298                 1.5053                 1.3831
 IR Inten    --      0.0006                 7.9858                 1.3851

                     43                     44                     45
                      A                      A                      A
 Frequencies --   1046.6631              1082.1822              1087.7329
 Red. masses --      1.7038                 1.2061                 1.4192
 Frc consts  --      1.0997                 0.8322                 0.9894
 IR Inten    --     29.3504                16.0405                85.6107

                     46                     47                     48
                      A                      A                      A
 Frequencies --   1090.7741              1091.2000              1108.2249
 Red. masses --      2.0709                 1.9223                 1.5993
 Frc consts  --      1.4517                 1.3486                 1.1572
 IR Inten    --      8.0365                 2.2854                 9.3770

                     49                     50                     51
                      A                      A                      A
 Frequencies --   1140.3337              1147.2897              1171.2974
 Red. masses --      1.2873                 2.7114                 1.9243
 Frc consts  --      0.9863                 2.1027                 1.5555
 IR Inten    --      2.9273                 0.0652                27.6952

                     52                     53                     54
                      A                      A                      A
 Frequencies --   1199.6086              1241.1124              1265.1913
 Red. masses --      1.1618                 2.3583                 1.3775
 Frc consts  --      0.9850                 2.1403                 1.2991
 IR Inten    --      7.7768                49.0441                 1.6639

                     55                     56                     57
                      A                      A                      A
 Frequencies --   1287.5458              1298.5809              1315.7848
 Red. masses --      1.3540                 1.5579                 1.6051
 Frc consts  --      1.3225                 1.5479                 1.6373
 IR Inten    --    101.5980                 5.4761                 4.4259

                     58                     59                     60
                      A                      A                      A
 Frequencies --   1343.4504              1365.5064              1372.8473
 Red. masses --      1.8086                 2.9014                 1.8264
 Frc consts  --      1.9232                 3.1875                 2.0281
 IR Inten    --      1.3264                60.4857                 7.6150

                     61                     62                     63
                      A                      A                      A
 Frequencies --   1381.6630              1385.6014              1398.6230
 Red. masses --      1.2774                 3.9389                 1.3766
 Frc consts  --      1.4368                 4.4556                 1.5865
 IR Inten    --     26.7447                 4.3537                41.6217

                     64                     65                     66
                      A                      A                      A
 Frequencies --   1399.9462              1435.9698              1448.1379
 Red. masses --      1.3463                 2.8034                 3.4617
 Frc consts  --      1.5546                 3.4058                 4.2772
 IR Inten    --     46.6255                15.9329                95.5481

                     67                     68                     69
                      A                      A                      A
 Frequencies --   1466.5695              1473.3454              1474.3737
 Red. masses --      1.9391                 1.0733                 1.0461
 Frc consts  --      2.4573                 1.3727                 1.3398
 IR Inten    --     14.7146                 0.0865                 3.2022

                     70                     71                     72
                      A                      A                      A
 Frequencies --   1475.7543              1483.3091              1493.7795
 Red. masses --      1.2917                 1.0869                 1.1575
 Frc consts  --      1.6574                 1.4090                 1.5218
 IR Inten    --      0.0022                11.0554                12.6840

                     73                     74                     75
                      A                      A                      A
 Frequencies --   1506.9437              1534.7222              1571.8541
 Red. masses --      1.1486                 3.5748                 4.7096
 Frc consts  --      1.5368                 4.9609                 6.8557
 IR Inten    --      0.5847                 9.1980                 0.0085

                     76                     77                     78
                      A                      A                      A
 Frequencies --   1574.4790              1630.7310              1687.3287
 Red. masses --      3.6608                 7.3676                 6.7181
 Frc consts  --      5.3468                11.5437                11.2693
 IR Inten    --    753.3146                 2.9128                55.2679

                     79                     80                     81
                      A                      A                      A
 Frequencies --   3053.7759              3059.5106              3059.6879
 Red. masses --      1.0627                 1.0367                 1.0366
 Frc consts  --      5.8389                 5.7176                 5.7176
 IR Inten    --     39.3766                26.1269                43.8461

                     82                     83                     84
                      A                      A                      A
 Frequencies --   3062.6654              3096.8287              3099.9466
 Red. masses --      1.0624                 1.0998                 1.1012
 Frc consts  --      5.8712                 6.2142                 6.2347
 IR Inten    --     35.1427                10.9347                 9.9844

                     85                     86                     87
                      A                      A                      A
 Frequencies --   3136.0588              3136.2133              3143.6211
 Red. masses --      1.1024                 1.1023                 1.1029
 Frc consts  --      6.3877                 6.3880                 6.4214
 IR Inten    --      2.4886                66.2602                 9.4872

                     88                     89                     90
                      A                      A                      A
 Frequencies --   3144.2974              3208.5322              3209.6955
 Red. masses --      1.1026                 1.0885                 1.0892
 Frc consts  --      6.4225                 6.6020                 6.6115
 IR Inten    --     81.0113                21.5806                 1.1801

                     91                     92                     93
                      A                      A                      A
 Frequencies --   3231.8508              3233.1694              3263.2955
 Red. masses --      1.0921                 1.0925                 1.0876
 Frc consts  --      6.7208                 6.7286                 6.8237
 IR Inten    --     15.3373                 7.5132                 4.1038

                     94                     95                     96
                      A                      A                      A
 Frequencies --   3274.3162              3287.8180              3295.0819
 Red. masses --      1.0925                 1.1003                 1.1078
 Frc consts  --      6.9013                 7.0075                 7.0870
 IR Inten    --      4.8016                 3.2136                 2.6481

 - Thermochemistry -
 -------------------
 Temperature   298.150 Kelvin.  Pressure   1.00000 Atm.
 Atom     1 has atomic number  7 and mass  14.00307

 Molecular mass:   214.14700 amu.
 Principal axes and moments of inertia in atomic units:
                           1         2         3
     Eigenvalues --  1268.263737779.385068575.08626
           X            1.00000  -0.00000  -0.00001
           Y            0.00000   1.00000  -0.00088
           Z            0.00001   0.00088   1.00000
 This molecule is an asymmetric top.
 Rotational symmetry number  1.
 Warning -- assumption of classical behavior for rotation
           may cause significant error
 Rotational temperatures (Kelvin)      0.06829     0.01113     0.01010
 Rotational constants (GHZ):           1.42300     0.23199     0.21046
 Zero-point vibrational energy     770004.6 (Joules/Mol)
                                  184.03552 (Kcal/Mol)
 Warning -- explicit consideration of  22 degrees of freedom as
           vibrations may cause significant error
 Vibrational temperatures:     51.95    68.30   110.05   110.99   124.84
          (Kelvin)            173.64   182.35   271.39   317.99   323.60
                              381.59   396.99   483.47   536.59   567.62
                              612.62   655.10   666.09   745.16   784.63
                              846.93   890.68   893.89   935.28  1024.99
                             1050.68  1058.56  1077.71  1124.22  1131.15
                             1173.98  1200.07  1229.63  1255.09  1292.31
                             1312.53  1341.55  1349.43  1375.50  1392.94
                             1449.59  1494.12  1505.91  1557.02  1565.01
                             1569.38  1569.99  1594.49  1640.69  1650.69
                             1685.24  1725.97  1785.68  1820.33  1852.49
                             1868.37  1893.12  1932.93  1964.66  1975.22
                             1987.90  1993.57  2012.31  2014.21  2066.04
                             2083.55  2110.07  2119.82  2121.29  2123.28
                             2134.15  2149.22  2168.16  2208.12  2261.55
                             2265.32  2346.26  2427.69  4393.70  4401.95
                             4402.21  4406.49  4455.65  4460.13  4512.09
                             4512.31  4522.97  4523.94  4616.36  4618.04
                             4649.91  4651.81  4695.15  4711.01  4730.44
                             4740.89

 Zero-point correction=                           0.293279 (Hartree/Particle)
 Thermal correction to Energy=                    0.308502
 Thermal correction to Enthalpy=                  0.309446
 Thermal correction to Gibbs Free Energy=         0.250089
 Sum of electronic and zero-point Energies=           -652.863883
 Sum of electronic and thermal Energies=              -652.848660
 Sum of electronic and thermal Enthalpies=            -652.847716
 Sum of electronic and thermal Free Energies=         -652.907073

                     E (Thermal)             CV                S
                      KCal/Mol        Cal/Mol-Kelvin    Cal/Mol-Kelvin
 Total                  193.588             59.104            124.927
 Electronic               0.000              0.000              0.000
 Translational            0.889              2.981             41.988
 Rotational               0.889              2.981             32.803
 Vibrational            191.811             53.142             50.136
 Vibration     1          0.594              1.982              5.462
 Vibration     2          0.595              1.979              4.920
 Vibration     3          0.599              1.965              3.979
 Vibration     4          0.599              1.964              3.962
 Vibration     5          0.601              1.958              3.732
 Vibration     6          0.609              1.932              3.089
 Vibration     7          0.611              1.926              2.995
 Vibration     8          0.633              1.855              2.241
 Vibration     9          0.648              1.809              1.951
 Vibration    10          0.650              1.803              1.919
 Vibration    11          0.671              1.737              1.627
 Vibration    12          0.678              1.718              1.559
 Vibration    13          0.717              1.604              1.231
 Vibration    14          0.744              1.528              1.068
 Vibration    15          0.761              1.482              0.983
 Vibration    16          0.788              1.414              0.873
 Vibration    17          0.814              1.349              0.780
 Vibration    18          0.821              1.332              0.758
 Vibration    19          0.873              1.210              0.615
 Vibration    20          0.901              1.150              0.554
 Vibration    21          0.946              1.056              0.470
 Vibration    22          0.979              0.992              0.418

                           ! Non-Optimized Parameters !
 Normal termination of Gaussian 16 at Thu Dec  7 13:57:23 2023.
