 Gaussian 16, Revision C.01,
 Gaussian 16:  EM64L-G16RevC.01  3-Jul-2019

 ------------------------------
 #p MN15/6-311++G(d,p) opt freq
 ------------------------------

 ---------------
 name file: 3429
 ---------------
 Symbolic Z-matrix:
 Charge =  0 Multiplicity = 1

 SCF Done:  E(RMN15) =  -1063.74411270     A.U. after   17 cycles
 SCF Done:  E(RMN15) =  -1063.74874185     A.U. after   16 cycles
 SCF Done:  E(RMN15) =  -1063.74916707     A.U. after   15 cycles
 SCF Done:  E(RMN15) =  -1063.74923163     A.U. after   15 cycles
 SCF Done:  E(RMN15) =  -1063.74925940     A.U. after   13 cycles
 SCF Done:  E(RMN15) =  -1063.74928036     A.U. after   15 cycles
 SCF Done:  E(RMN15) =  -1063.74930300     A.U. after   15 cycles
 SCF Done:  E(RMN15) =  -1063.74931291     A.U. after   15 cycles
 SCF Done:  E(RMN15) =  -1063.74931692     A.U. after   15 cycles
 SCF Done:  E(RMN15) =  -1063.74959982     A.U. after   17 cycles
 SCF Done:  E(RMN15) =  -1063.75069449     A.U. after   16 cycles
 SCF Done:  E(RMN15) =  -1063.75067814     A.U. after   16 cycles
 SCF Done:  E(RMN15) =  -1063.75073948     A.U. after   14 cycles
 SCF Done:  E(RMN15) =  -1063.75074668     A.U. after   12 cycles
 SCF Done:  E(RMN15) =  -1063.75074855     A.U. after   12 cycles
 SCF Done:  E(RMN15) =  -1063.75074917     A.U. after   12 cycles
 SCF Done:  E(RMN15) =  -1063.75074929     A.U. after   11 cycles
 SCF Done:  E(RMN15) =  -1063.75074931     A.U. after   10 cycles
 SCF Done:  E(RMN15) =  -1063.75074931     A.U. after   10 cycles
 Optimization completed.
    -- Stationary point found.
 Normal termination of Gaussian 16 at Wed Dec  6 07:03:56 2023.

 ----------------------------------------------------------------------
 #P Geom=AllCheck Guess=TCheck SCRF=Check GenChk RMN15/6-311++G(d,p) Fr
 eq
 ----------------------------------------------------------------------

 Structure from the checkpoint file:  "/home/exlonk/in_progress/3429.chk"
 ---------------
 name file: 3429
 ---------------
 Charge =  0 Multiplicity = 1

                         Standard orientation:
 ---------------------------------------------------------------------
 Center     Atomic      Atomic             Coordinates (Angstroms)
 Number     Number       Type             X           Y           Z
 ---------------------------------------------------------------------
      1         16           0        1.096202   -1.527011   -0.135519
      2          7           0        0.985555    1.048181    0.087945
      3          7           0       -4.134983   -2.250641    0.089425
      4          7           0       -3.907646    2.572675   -0.172923
      5          6           0       -1.238828    0.035842   -0.002099
      6          6           0        0.233558   -0.000579   -0.000628
      7          6           0        2.593995   -0.663248   -0.052574
      8          6           0        2.325237    0.714333    0.062776
      9          6           0       -1.868352    1.277832   -0.065159
     10          6           0       -1.982196   -1.142807    0.064762
     11          6           0       -3.379526   -1.081117    0.065305
     12          6           0       -3.264428    1.344004   -0.064975
     13          6           0       -4.010310    0.162989   -0.001268
     14          6           0        3.900007   -1.152139   -0.090776
     15          6           0        3.388861    1.621334    0.143020
     16          6           0        4.940309   -0.238016   -0.010507
     17          6           0        4.685950    1.138008    0.105807
     18          1           0       -1.265104    2.176450   -0.117895
     19          1           0       -1.491054   -2.109274    0.121753
     20          1           0       -5.095922    0.212546   -0.016381
     21          1           0        4.097077   -2.213625   -0.180765
     22          1           0        3.175569    2.679636    0.232462
     23          1           0        5.964107   -0.592335   -0.038086
     24          1           0        5.518503    1.829082    0.166481
     25          1           0       -5.090563   -2.165760    0.405434
     26          1           0       -3.669975   -3.079276    0.432217
     27          1           0       -3.362151    3.388165    0.067003
     28          1           0       -4.865882    2.616449    0.142849
 ---------------------------------------------------------------------

 SCF Done:  E(RMN15) =  -1063.75074931     A.U. after    1 cycles

 The electronic state is 1-A.
 Alpha  occ. eigenvalues --  -87.76513 -14.09696 -14.09499 -14.08903 -10.11660
 Alpha  occ. eigenvalues --  -10.08941 -10.08777 -10.07892 -10.07769 -10.06045
 Alpha  occ. eigenvalues --  -10.05436 -10.04780 -10.04599 -10.04520 -10.03386
 Alpha  occ. eigenvalues --  -10.03385 -10.02757  -7.74047  -5.92586  -5.91982
 Alpha  occ. eigenvalues --   -5.91423  -1.01703  -0.97524  -0.96085  -0.90574
 Alpha  occ. eigenvalues --   -0.88039  -0.84511  -0.80875  -0.78599  -0.76712
 Alpha  occ. eigenvalues --   -0.76141  -0.69165  -0.65926  -0.64703  -0.63763
 Alpha  occ. eigenvalues --   -0.61395  -0.57977  -0.57023  -0.53998  -0.53668
 Alpha  occ. eigenvalues --   -0.52848  -0.52584  -0.50196  -0.49354  -0.48189
 Alpha  occ. eigenvalues --   -0.48082  -0.46243  -0.45250  -0.44760  -0.43612
 Alpha  occ. eigenvalues --   -0.41388  -0.40736  -0.40143  -0.39949  -0.39163
 Alpha  occ. eigenvalues --   -0.37549  -0.34462  -0.34038  -0.32016  -0.28068
 Alpha  occ. eigenvalues --   -0.27101  -0.24863  -0.23684
 Alpha virt. eigenvalues --   -0.03738   0.00775   0.02511   0.02839   0.02937
 Alpha virt. eigenvalues --    0.03444   0.04144   0.04778   0.05004   0.05334
 Alpha virt. eigenvalues --    0.06497   0.06983   0.07351   0.07807   0.08677

 Mulliken charges:
               1
     1  S   -0.320385
     2  N    0.232419
     3  N   -0.302211
     4  N   -0.304540
     5  C    1.110770
     6  C   -0.010818
     7  C    1.786379
     8  C   -0.816538
     9  C   -0.532397
    10  C   -0.777094
    11  C   -0.693402
    12  C   -0.628225
    13  C    1.161032
    14  C   -0.412189
    15  C   -0.930515
    16  C    0.092321
    17  C   -0.341079
    18  H    0.122672
    19  H    0.021183
    20  H    0.068484
    21  H    0.130026
    22  H    0.138176
    23  H    0.128959
    24  H    0.130338
    25  H    0.238136
    26  H    0.234903
    27  H    0.236986
    28  H    0.236608
 Sum of Mulliken charges =  -0.00000

 Dipole moment (field-independent basis, Debye):
    X=             -1.8416    Y=             -0.5997    Z=              1.6536  Tot=              2.5467
 Quadrupole moment (field-independent basis, Debye-Ang):
   XX=            -78.5054   YY=            -92.1502   ZZ=           -114.8090
   XY=             -1.4923   XZ=             -8.1223   YZ=             -0.3330

  Exact polarizability:     318.694       6.424     207.924       0.407       1.012     101.717
 Approx polarizability:     366.405      10.720     314.369       1.034       3.289     143.180

                      1                      2                      3
                      A                      A                      A
 Frequencies --     15.8537                55.8612                86.0963
 Red. masses --      5.8022                 5.6724                 5.3632
 Frc consts  --      0.0009                 0.0104                 0.0234
 IR Inten    --      0.2638                 2.9209                 1.2673

                      4                      5                      6
                      A                      A                      A
 Frequencies --    157.7824               192.1413               214.3472
 Red. masses --      5.3217                 5.7827                 3.5255
 Frc consts  --      0.0781                 0.1258                 0.0954
 IR Inten    --      2.2088                 0.2851                 9.2678

                      7                      8                      9
                      A                      A                      A
 Frequencies --    221.3370               236.4699               253.1287
 Red. masses --      3.2903                 5.4216                 5.3831
 Frc consts  --      0.0950                 0.1786                 0.2032
 IR Inten    --      1.9608                 0.1940                 0.1681

                     10                     11                     12
                      A                      A                      A
 Frequencies --    288.9729               305.2971               307.8566
 Red. masses --      1.0559                 1.0994                 5.6297
 Frc consts  --      0.0520                 0.0604                 0.3144
 IR Inten    --     19.8550                10.8402                 1.9992

                     13                     14                     15
                      A                      A                      A
 Frequencies --    325.8809               396.6402               432.1866
 Red. masses --      3.1864                 7.1655                 3.1294
 Frc consts  --      0.1994                 0.6642                 0.3444
 IR Inten    --      0.1882                 3.3864                 9.6239

                     16                     17                     18
                      A                      A                      A
 Frequencies --    466.2614               481.0026               485.7002
 Red. masses --      1.2596                 1.6884                 2.5581
 Frc consts  --      0.1613                 0.2301                 0.3555
 IR Inten    --    253.8529               243.6795                80.9948

                     19                     20                     21
                      A                      A                      A
 Frequencies --    509.1435               511.8614               526.4222
 Red. masses --      7.0988                 4.8968                 5.8147
 Frc consts  --      1.0842                 0.7559                 0.9494
 IR Inten    --      8.5405                28.0687                 0.0524

                     22                     23                     24
                      A                      A                      A
 Frequencies --    546.7104               578.2164               587.9030
 Red. masses --      5.4858                 4.2090                 6.3572
 Frc consts  --      0.9661                 0.8291                 1.2946
 IR Inten    --      6.7349                 3.6022                 1.5576

                     25                     26                     27
                      A                      A                      A
 Frequencies --    620.3777               654.7402               679.6290
 Red. masses --      3.7583                 4.9911                 1.9225
 Frc consts  --      0.8522                 1.2606                 0.5232
 IR Inten    --      7.4163                 0.3019                18.2750

                     28                     29                     30
                      A                      A                      A
 Frequencies --    695.2489               719.5672               723.1229
 Red. masses --      8.2761                 7.1529                 3.0848
 Frc consts  --      2.3570                 2.1821                 0.9504
 IR Inten    --      9.5804                 1.4129                13.6653

                     31                     32                     33
                      A                      A                      A
 Frequencies --    765.9737               801.1212               823.8667
 Red. masses --      1.5129                 7.4712                 1.6401
 Frc consts  --      0.5230                 2.8251                 0.6559
 IR Inten    --     62.3575                24.2594                 8.0136

                     34                     35                     36
                      A                      A                      A
 Frequencies --    846.5316               863.9497               867.7967
 Red. masses --      1.7997                 1.3516                 1.5643
 Frc consts  --      0.7599                 0.5944                 0.6941
 IR Inten    --     29.5534                 0.0122                23.5903

                     37                     38                     39
                      A                      A                      A
 Frequencies --    897.7751               961.9564               993.8094
 Red. masses --      6.7475                 1.3650                 6.0315
 Frc consts  --      3.2042                 0.7442                 3.5098
 IR Inten    --     35.4856                 1.4722                 2.2505

                     40                     41                     42
                      A                      A                      A
 Frequencies --    997.1879              1020.6186              1037.6962
 Red. masses --      1.2859                 2.4730                 2.1050
 Frc consts  --      0.7534                 1.5177                 1.3355
 IR Inten    --      0.0206                18.5764                 4.0315

                     43                     44                     45
                      A                      A                      A
 Frequencies --   1041.2015              1086.2617              1097.5237
 Red. masses --      1.8636                 3.1638                 1.3321
 Frc consts  --      1.1903                 2.1995                 0.9454
 IR Inten    --      4.3335                 3.0341                 2.4103

                     46                     47                     48
                      A                      A                      A
 Frequencies --   1110.7606              1139.0904              1170.0779
 Red. masses --      1.4941                 1.3232                 1.2317
 Frc consts  --      1.0861                 1.0116                 0.9935
 IR Inten    --      8.7085                 3.2956                 3.3420

                     49                     50                     51
                      A                      A                      A
 Frequencies --   1214.4851              1218.4622              1268.2536
 Red. masses --      1.8430                 2.2491                 1.8565
 Frc consts  --      1.6017                 1.9674                 1.7594
 IR Inten    --     50.0525                64.4836                 6.5205

                     52                     53                     54
                      A                      A                      A
 Frequencies --   1291.9802              1315.0416              1350.9076
 Red. masses --      1.3925                 2.4741                 7.1640
 Frc consts  --      1.3695                 2.5208                 7.7030
 IR Inten    --      0.4018                28.0562                10.3946

                     55                     56                     57
                      A                      A                      A
 Frequencies --   1366.1412              1404.5267              1470.3650
 Red. masses --      5.8921                 5.4688                 2.6630
 Frc consts  --      6.4790                 6.3562                 3.3921
 IR Inten    --     20.7874                99.2013                30.3927

                     58                     59                     60
                      A                      A                      A
 Frequencies --   1493.3686              1505.4116              1524.6625
 Red. masses --      2.9815                 4.0659                 3.5635
 Frc consts  --      3.9176                 5.4290                 4.8807
 IR Inten    --      4.0528                70.9597                39.2202

                     61                     62                     63
                      A                      A                      A
 Frequencies --   1593.7516              1621.9520              1624.3571
 Red. masses --      9.1882                 6.2653                 1.2250
 Frc consts  --     13.7506                 9.7111                 1.9044
 IR Inten    --    107.0878                 5.2149                73.1465

                     64                     65                     66
                      A                      A                      A
 Frequencies --   1629.6885              1660.0400              1665.1520
 Red. masses --      1.2820                 5.4980                 6.3190
 Frc consts  --      2.0060                 8.9267                10.3231
 IR Inten    --     50.4107               140.5062               119.8721

                     67                     68                     69
                      A                      A                      A
 Frequencies --   1675.4364              3178.0643              3193.1929
 Red. masses --      6.1441                 1.0902                 1.0903
 Frc consts  --     10.1617                 6.4876                 6.5499
 IR Inten    --    290.2989                25.2714                 5.5967

                     70                     71                     72
                      A                      A                      A
 Frequencies --   3207.0830              3218.1141              3223.7702
 Red. masses --      1.0857                 1.0898                 1.0910
 Frc consts  --      6.5791                 6.6496                 6.6804
 IR Inten    --      0.9347                 6.6139                 5.7238

                     73                     74                     75
                      A                      A                      A
 Frequencies --   3228.6020              3235.7360              3617.0364
 Red. masses --      1.0950                 1.0975                 1.0476
 Frc consts  --      6.7249                 6.7699                 8.0753
 IR Inten    --     18.5214                16.1101                33.2313

                     76                     77                     78
                      A                      A                      A
 Frequencies --   3618.6265              3726.9907              3729.8931
 Red. masses --      1.0475                 1.1002                 1.1005
 Frc consts  --      8.0812                 9.0041                 9.0204
 IR Inten    --     33.1660                19.7407                20.6757

 - Thermochemistry -
 -------------------
 Temperature   298.150 Kelvin.  Pressure   1.00000 Atm.
 Atom     1 has atomic number 16 and mass  31.97207

 Molecular mass:   241.06737 amu.
 Principal axes and moments of inertia in atomic units:
                           1         2         3
     Eigenvalues --  1644.012128194.151029820.29912
           X            1.00000   0.00183  -0.00168
           Y           -0.00184   1.00000  -0.00166
           Z            0.00167   0.00166   1.00000
 This molecule is an asymmetric top.
 Rotational symmetry number  1.
 Warning -- assumption of classical behavior for rotation
           may cause significant error
 Rotational temperatures (Kelvin)      0.05268     0.01057     0.00882
 Rotational constants (GHZ):           1.09777     0.22025     0.18378
 Zero-point vibrational energy     567448.9 (Joules/Mol)
                                  135.62355 (Kcal/Mol)
 Warning -- explicit consideration of  25 degrees of freedom as
           vibrations may cause significant error
 Vibrational temperatures:     22.81    80.37   123.87   227.01   276.45
          (Kelvin)            308.40   318.45   340.23   364.20   415.77
                              439.25   442.94   468.87   570.68   621.82
                              670.85   692.06   698.81   732.54   736.45
                              757.40   786.59   831.92   845.86   892.59
                              942.03   977.83  1000.31  1035.30  1040.41
                             1102.07  1152.63  1185.36  1217.97  1243.03
                             1248.57  1291.70  1384.04  1429.87  1434.73
                             1468.44  1493.01  1498.06  1562.89  1579.09
                             1598.14  1638.90  1683.48  1747.37  1753.10
                             1824.73  1858.87  1892.05  1943.65  1965.57
                             2020.80  2115.53  2148.62  2165.95  2193.65
                             2293.05  2333.63  2337.09  2344.76  2388.43
                             2395.78  2410.58  4572.53  4594.29  4614.28
                             4630.15  4638.29  4645.24  4655.50  5204.11
                             5206.40  5362.31  5366.48

 Zero-point correction=                           0.216130 (Hartree/Particle)
 Thermal correction to Energy=                    0.230513
 Thermal correction to Enthalpy=                  0.231457
 Thermal correction to Gibbs Free Energy=         0.174168
 Sum of electronic and zero-point Energies=          -1063.534619
 Sum of electronic and thermal Energies=             -1063.520236
 Sum of electronic and thermal Enthalpies=           -1063.519292
 Sum of electronic and thermal Free Energies=        -1063.576582

                     E (Thermal)             CV                S
                      KCal/Mol        Cal/Mol-Kelvin    Cal/Mol-Kelvin
 Total                  144.649             57.828            120.576
 Electronic               0.000              0.000              0.000
 Translational            0.889              2.981             42.341
 Rotational               0.889              2.981             33.247
 Vibrational            142.872             51.867             44.988
 Vibration     1          0.593              1.986              7.096
 Vibration     2          0.596              1.975              4.598
 Vibration     3          0.601              1.959              3.747
 Vibration     4          0.621              1.894              2.576
 Vibration     5          0.634              1.851              2.207
 Vibration     6          0.644              1.819              2.006
 Vibration     7          0.648              1.809              1.948
 Vibration     8          0.655              1.785              1.829
 Vibration     9          0.664              1.758              1.709
 Vibration    10          0.686              1.694              1.480
 Vibration    11          0.696              1.664              1.388
 Vibration    12          0.698              1.659              1.374
 Vibration    13          0.710              1.624              1.280
 Vibration    14          0.763              1.477              0.975
 Vibration    15          0.793              1.400              0.852
 Vibration    16          0.824              1.325              0.748
 Vibration    17          0.837              1.292              0.707
 Vibration    18          0.842              1.282              0.695
 Vibration    19          0.864              1.230              0.636
 Vibration    20          0.867              1.224              0.629
 Vibration    21          0.881              1.192              0.595
 Vibration    22          0.902              1.147              0.551
 Vibration    23          0.935              1.078              0.489
 Vibration    24          0.945              1.058              0.471
 Vibration    25          0.980              0.989              0.416

 Optimization completed.
    -- Stationary point found.
 Normal termination of Gaussian 16 at Wed Dec  6 07:17:54 2023.
