 Gaussian 16, Revision C.01,
 Gaussian 16:  EM64L-G16RevC.01  3-Jul-2019

 ------------------------------
 #p MN15/6-311++G(d,p) opt freq
 ------------------------------

 ---------------
 name file: 3531
 ---------------
 Symbolic Z-matrix:
 Charge =  0 Multiplicity = 1

 SCF Done:  E(RMN15) =  -782.686101438     A.U. after   16 cycles
 SCF Done:  E(RMN15) =  -782.698103409     A.U. after   14 cycles
 SCF Done:  E(RMN15) =  -782.699143973     A.U. after   12 cycles
 SCF Done:  E(RMN15) =  -782.699218000     A.U. after   11 cycles
 SCF Done:  E(RMN15) =  -782.699208325     A.U. after   12 cycles
 SCF Done:  E(RMN15) =  -782.699219376     A.U. after   12 cycles
 SCF Done:  E(RMN15) =  -782.699225817     A.U. after   10 cycles
 SCF Done:  E(RMN15) =  -782.699226048     A.U. after    9 cycles
 SCF Done:  E(RMN15) =  -782.698311909     A.U. after   16 cycles
 SCF Done:  E(RMN15) =  -782.699228286     A.U. after   12 cycles
 SCF Done:  E(RMN15) =  -782.624808952     A.U. after   16 cycles
 SCF Done:  E(RMN15) =  -782.697563740     A.U. after   16 cycles
 SCF Done:  E(RMN15) =  -782.699997421     A.U. after   13 cycles
 SCF Done:  E(RMN15) =  -782.700148780     A.U. after   12 cycles
 SCF Done:  E(RMN15) =  -782.700352321     A.U. after   14 cycles
 SCF Done:  E(RMN15) =  -782.700391950     A.U. after   13 cycles
 SCF Done:  E(RMN15) =  -782.700396290     A.U. after   11 cycles
 SCF Done:  E(RMN15) =  -782.700396639     A.U. after   10 cycles
 SCF Done:  E(RMN15) =  -782.700396677     A.U. after    9 cycles
 Optimization completed.
    -- Stationary point found.
 Normal termination of Gaussian 16 at Tue Dec  5 10:09:45 2023.

 ----------------------------------------------------------------------
 #P Geom=AllCheck Guess=TCheck SCRF=Check GenChk RMN15/6-311++G(d,p) Fr
 eq
 ----------------------------------------------------------------------

 Structure from the checkpoint file:  "/home/exlonk/in_progress/3531.chk"
 ---------------
 name file: 3531
 ---------------
 Charge =  0 Multiplicity = 1

                         Standard orientation:
 ---------------------------------------------------------------------
 Center     Atomic      Atomic             Coordinates (Angstroms)
 Number     Number       Type             X           Y           Z
 ---------------------------------------------------------------------
      1          8           0        1.142634    2.416904   -0.717988
      2          8           0       -0.059747    2.670735    1.153472
      3          7           0       -0.546801   -2.231979   -0.136168
      4          6           0        1.095648   -0.443124    0.084415
      5          6           0       -1.276389    0.086708    0.062863
      6          6           0        0.061594    0.503350    0.128983
      7          6           0        0.722886   -1.824197   -0.045037
      8          6           0       -1.523522   -1.320600   -0.085811
      9          6           0        2.484614   -0.119468    0.199660
     10          6           0       -2.395375    0.977680    0.107675
     11          6           0        1.749244   -2.819698   -0.078396
     12          6           0       -2.873799   -1.780693   -0.186152
     13          6           0        0.361773    1.963991    0.270251
     14          6           0        3.431661   -1.100048    0.172896
     15          6           0       -3.667453    0.496469    0.008176
     16          6           0        3.061318   -2.469582    0.026229
     17          6           0       -3.912402   -0.900693   -0.141131
     18          6           0        1.462069    3.809259   -0.652384
     19          1           0        2.778903    0.916524    0.309621
     20          1           0       -2.221103    2.037950    0.239211
     21          1           0        1.429693   -3.849615   -0.183149
     22          1           0       -3.021151   -2.848191   -0.298025
     23          1           0        4.479722   -0.839861    0.265225
     24          1           0       -4.506310    1.181644    0.046759
     25          1           0        3.833231   -3.230118    0.003669
     26          1           0       -4.933363   -1.256713   -0.217057
     27          1           0        2.095425    4.012315   -1.511663
     28          1           0        1.986555    4.034789    0.276986
     29          1           0        0.551710    4.407882   -0.695685
 ---------------------------------------------------------------------

 SCF Done:  E(RMN15) =  -782.700396677     A.U. after    1 cycles

 The electronic state is 1-A.
 Alpha  occ. eigenvalues --  -18.86521 -18.80957 -14.09361 -10.19260 -10.10497
 Alpha  occ. eigenvalues --  -10.09142 -10.09101 -10.08520 -10.07417 -10.07344
 Alpha  occ. eigenvalues --  -10.05739 -10.05632 -10.05569 -10.05495 -10.05449
 Alpha  occ. eigenvalues --  -10.05377 -10.04952 -10.04843  -1.17460  -1.07888
 Alpha  occ. eigenvalues --   -1.00684  -0.91549  -0.90472  -0.86989  -0.81320
 Alpha  occ. eigenvalues --   -0.80194  -0.79667  -0.77629  -0.71805  -0.68634
 Alpha  occ. eigenvalues --   -0.68222  -0.64533  -0.62652  -0.60357  -0.59946
 Alpha  occ. eigenvalues --   -0.58122  -0.55122  -0.54078  -0.52680  -0.52482
 Alpha  occ. eigenvalues --   -0.52048  -0.50785  -0.48571  -0.48352  -0.47929
 Alpha  occ. eigenvalues --   -0.47212  -0.46865  -0.44737  -0.43233  -0.42526
 Alpha  occ. eigenvalues --   -0.42082  -0.40929  -0.39948  -0.39317  -0.37998
 Alpha  occ. eigenvalues --   -0.36740  -0.36409  -0.34357  -0.30967  -0.30606
 Alpha  occ. eigenvalues --   -0.28857  -0.25330
 Alpha virt. eigenvalues --   -0.07278  -0.01330   0.00227   0.01150   0.02949
 Alpha virt. eigenvalues --    0.03814   0.04025   0.05118   0.05450   0.05582
 Alpha virt. eigenvalues --    0.06306   0.06861   0.07099   0.07375   0.07834

 Mulliken charges:
               1
     1  O    0.044155
     2  O   -0.192310
     3  N    0.207825
     4  C    0.676902
     5  C    0.946203
     6  C    1.213738
     7  C   -0.527410
     8  C   -0.507285
     9  C   -0.283705
    10  C   -0.313313
    11  C   -0.617089
    12  C   -0.550426
    13  C   -0.421478
    14  C   -0.218456
    15  C   -0.407995
    16  C   -0.142398
    17  C   -0.184524
    18  C   -0.176599
    19  H    0.050933
    20  H    0.075908
    21  H    0.151588
    22  H    0.150041
    23  H    0.145880
    24  H    0.146514
    25  H    0.135685
    26  H    0.135157
    27  H    0.155438
    28  H    0.156009
    29  H    0.151011
 Sum of Mulliken charges =  -0.00000

 Dipole moment (field-independent basis, Debye):
    X=              1.2453    Y=              1.5149    Z=             -1.2765  Tot=              2.3399
 Quadrupole moment (field-independent basis, Debye-Ang):
   XX=            -85.0939   YY=            -95.8902   ZZ=           -111.8506
   XY=              1.6471   XZ=              1.2667   YZ=             -5.4308

  Exact polarizability:     288.593     -16.668     208.603       1.859       5.468     102.898
 Approx polarizability:     391.502     -25.938     287.298       1.289      14.933     148.705

                      1                      2                      3
                      A                      A                      A
 Frequencies --     50.6280                65.5918                92.3671
 Red. masses --      5.4923                 4.4338                 4.2367
 Frc consts  --      0.0083                 0.0112                 0.0213
 IR Inten    --      1.9271                 0.7280                 1.7096

                      4                      5                      6
                      A                      A                      A
 Frequencies --    100.3920               111.4824               163.5412
 Red. masses --      3.7492                 3.7338                 1.1421
 Frc consts  --      0.0223                 0.0273                 0.0180
 IR Inten    --      1.0948                 0.0952                 0.1386

                      7                      8                      9
                      A                      A                      A
 Frequencies --    209.8941               217.7947               232.7879
 Red. masses --      4.6718                 5.5784                 4.7723
 Frc consts  --      0.1213                 0.1559                 0.1524
 IR Inten    --      2.0657                 2.6938                 0.1791

                     10                     11                     12
                      A                      A                      A
 Frequencies --    240.0389               312.3599               338.7612
 Red. masses --      5.3023                 4.9542                 5.2863
 Frc consts  --      0.1800                 0.2848                 0.3574
 IR Inten    --      2.8620                10.7924                 6.5794

                     13                     14                     15
                      A                      A                      A
 Frequencies --    366.5447               410.6358               426.1494
 Red. masses --      5.8478                 6.1946                 4.5125
 Frc consts  --      0.4629                 0.6154                 0.4828
 IR Inten    --      4.4416                 0.1390                 2.8108

                     16                     17                     18
                      A                      A                      A
 Frequencies --    437.6118               480.4604               498.0184
 Red. masses --      4.7158                 3.0278                 3.0897
 Frc consts  --      0.5321                 0.4118                 0.4515
 IR Inten    --      3.6498                 0.4815                 0.0174

                     19                     20                     21
                      A                      A                      A
 Frequencies --    527.1884               578.1854               595.4362
 Red. masses --      7.4014                 3.7539                 6.7446
 Frc consts  --      1.2120                 0.7394                 1.4089
 IR Inten    --      7.4266                 1.6000                10.5930

                     22                     23                     24
                      A                      A                      A
 Frequencies --    634.6971               642.2681               664.2877
 Red. masses --      6.1603                 5.4350                 6.3032
 Frc consts  --      1.4621                 1.3209                 1.6388
 IR Inten    --     10.8818                14.1664                 0.2689

                     25                     26                     27
                      A                      A                      A
 Frequencies --    746.7290               748.3944               773.8881
 Red. masses --      3.3601                 2.2667                 2.5614
 Frc consts  --      1.1039                 0.7480                 0.9038
 IR Inten    --      0.6788                40.8099                 9.4774

                     28                     29                     30
                      A                      A                      A
 Frequencies --    774.7288               783.1128               803.4377
 Red. masses --      2.1358                 2.3163                 3.1375
 Frc consts  --      0.7553                 0.8369                 1.1933
 IR Inten    --      6.1377                65.7404                13.1930

                     31                     32                     33
                      A                      A                      A
 Frequencies --    857.9415               869.1254               875.6129
 Red. masses --      5.7363                 1.5683                 2.0716
 Frc consts  --      2.4877                 0.6980                 0.9358
 IR Inten    --      6.0064                 0.3582                 3.9293

                     34                     35                     36
                      A                      A                      A
 Frequencies --    880.0522               934.0560               966.4826
 Red. masses --      5.1299                 7.1234                 5.4255
 Frc consts  --      2.3408                 3.6617                 2.9859
 IR Inten    --      7.3670                 1.9367                 8.0724

                     37                     38                     39
                      A                      A                      A
 Frequencies --    989.5100               993.0505              1013.1391
 Red. masses --      1.3487                 1.3297                 1.3103
 Frc consts  --      0.7780                 0.7726                 0.7924
 IR Inten    --      0.3989                 0.2697                 0.3080

                     40                     41                     42
                      A                      A                      A
 Frequencies --   1013.4654              1034.9426              1035.4225
 Red. masses --      1.3111                 2.1763                 1.9814
 Frc consts  --      0.7934                 1.3734                 1.2516
 IR Inten    --      0.0381                 1.1439                10.3592

                     43                     44                     45
                      A                      A                      A
 Frequencies --   1075.0976              1134.7920              1147.7743
 Red. masses --      6.9837                 1.6269                 1.4155
 Frc consts  --      4.7559                 1.2344                 1.0987
 IR Inten    --     39.0557                 0.0862                 5.1338

                     46                     47                     48
                      A                      A                      A
 Frequencies --   1153.0926              1169.4903              1181.6545
 Red. masses --      1.1709                 1.2967                 1.2235
 Frc consts  --      0.9173                 1.0449                 1.0066
 IR Inten    --      1.9433                 1.3189                11.8898

                     49                     50                     51
                      A                      A                      A
 Frequencies --   1198.5011              1228.9245              1267.5325
 Red. masses --      1.4933                 1.4606                 3.6925
 Frc consts  --      1.2638                 1.2997                 3.4953
 IR Inten    --      4.7264                10.0596               182.0316

                     52                     53                     54
                      A                      A                      A
 Frequencies --   1278.3050              1299.6530              1313.0032
 Red. masses --      3.1859                 2.6456                 2.3590
 Frc consts  --      3.0673                 2.6329                 2.3961
 IR Inten    --     71.2346               105.3622                79.7023

                     55                     56                     57
                      A                      A                      A
 Frequencies --   1387.6952              1390.9138              1421.6604
 Red. masses --      2.3711                 4.3227                 2.4563
 Frc consts  --      2.6903                 4.9272                 2.9250
 IR Inten    --      4.6110                75.0106                 4.7919

                     58                     59                     60
                      A                      A                      A
 Frequencies --   1458.9352              1470.0819              1471.9892
 Red. masses --      2.1081                 2.2064                 1.2012
 Frc consts  --      2.6437                 2.8094                 1.5335
 IR Inten    --     15.5510                23.7275                 2.4279

                     61                     62                     63
                      A                      A                      A
 Frequencies --   1473.8568              1486.7430              1502.0688
 Red. masses --      1.9567                 1.0597                 3.6771
 Frc consts  --      2.5043                 1.3801                 4.8880
 IR Inten    --     23.3209                 9.3402                13.7308

                     64                     65                     66
                      A                      A                      A
 Frequencies --   1528.7550              1584.4359              1618.9121
 Red. masses --      3.6776                 7.1949                 9.2909
 Frc consts  --      5.0640                10.6420                14.3468
 IR Inten    --      7.0051                23.1903                23.6038

                     67                     68                     69
                      A                      A                      A
 Frequencies --   1624.0606              1678.3050              1697.8683
 Red. masses --      8.0555                 6.2372                 6.4443
 Frc consts  --     12.5184                10.3510                10.9454
 IR Inten    --      3.3993                 7.2560                 0.5529

                     70                     71                     72
                      A                      A                      A
 Frequencies --   1824.3876              3088.9147              3167.2183
 Red. masses --     12.1352                 1.0314                 1.1062
 Frc consts  --     23.7974                 5.7981                 6.5378
 IR Inten    --    259.3314                34.2403                15.4964

                     73                     74                     75
                      A                      A                      A
 Frequencies --   3208.0938              3208.3714              3209.5847
 Red. masses --      1.0863                 1.0865                 1.1058
 Frc consts  --      6.5869                 6.5892                 6.7116
 IR Inten    --      6.0419                 2.3664                11.4807

                     76                     77                     78
                      A                      A                      A
 Frequencies --   3220.1163              3220.8414              3234.4480
 Red. masses --      1.0893                 1.0897                 1.0953
 Frc consts  --      6.6550                 6.6606                 6.7513
 IR Inten    --      8.0672                 7.9697                 9.9093

                     79                     80                     81
                      A                      A                      A
 Frequencies --   3235.0431              3239.3973              3241.7623
 Red. masses --      1.0960                 1.0966                 1.0957
 Frc consts  --      6.7582                 6.7802                 6.7843
 IR Inten    --     14.7466                20.3079                10.2990

 - Thermochemistry -
 -------------------
 Temperature   298.150 Kelvin.  Pressure   1.00000 Atm.
 Atom     1 has atomic number  8 and mass  15.99491

 Molecular mass:   237.07898 amu.
 Principal axes and moments of inertia in atomic units:
                           1         2         3
     Eigenvalues --  3375.048474114.120327195.29534
           X            0.99974   0.02285  -0.00002
           Y           -0.02285   0.99972  -0.00647
           Z           -0.00012   0.00646   0.99998
 This molecule is an asymmetric top.
 Rotational symmetry number  1.
 Warning -- assumption of classical behavior for rotation
           may cause significant error
 Rotational temperatures (Kelvin)      0.02566     0.02105     0.01204
 Rotational constants (GHZ):           0.53473     0.43867     0.25082
 Zero-point vibrational energy     591149.6 (Joules/Mol)
                                  141.28814 (Kcal/Mol)
 Warning -- explicit consideration of  21 degrees of freedom as
           vibrations may cause significant error
 Vibrational temperatures:     72.84    94.37   132.90   144.44   160.40
          (Kelvin)            235.30   301.99   313.36   334.93   345.36
                              449.42   487.40   527.38   590.81   613.13
                              629.63   691.28   716.54   758.51   831.88
                              856.70   913.19   924.08   955.76  1074.38
                             1076.77  1113.45  1114.66  1126.72  1155.97
                             1234.39  1250.48  1259.81  1266.20  1343.90
                             1390.55  1423.68  1428.78  1457.68  1458.15
                             1489.05  1489.74  1546.83  1632.71  1651.39
                             1659.04  1682.64  1700.14  1724.38  1768.15
                             1823.70  1839.20  1869.91  1889.12  1996.58
                             2001.21  2045.45  2099.08  2115.12  2117.86
                             2120.55  2139.09  2161.14  2199.54  2279.65
                             2329.25  2336.66  2414.71  2442.85  2624.89
                             4444.26  4556.92  4615.73  4616.13  4617.88
                             4633.03  4634.07  4653.65  4654.51  4660.77
                             4664.17

 Zero-point correction=                           0.225157 (Hartree/Particle)
 Thermal correction to Energy=                    0.239269
 Thermal correction to Enthalpy=                  0.240213
 Thermal correction to Gibbs Free Energy=         0.183851
 Sum of electronic and zero-point Energies=           -782.475240
 Sum of electronic and thermal Energies=              -782.461128
 Sum of electronic and thermal Enthalpies=            -782.460183
 Sum of electronic and thermal Free Energies=         -782.516546

                     E (Thermal)             CV                S
                      KCal/Mol        Cal/Mol-Kelvin    Cal/Mol-Kelvin
 Total                  150.144             55.565            118.624
 Electronic               0.000              0.000              0.000
 Translational            0.889              2.981             42.291
 Rotational               0.889              2.981             32.968
 Vibrational            148.366             49.604             43.365
 Vibration     1          0.595              1.977              4.793
 Vibration     2          0.597              1.971              4.281
 Vibration     3          0.602              1.955              3.609
 Vibration     4          0.604              1.949              3.447
 Vibration     5          0.607              1.940              3.243
 Vibration     6          0.623              1.887              2.508
 Vibration     7          0.642              1.826              2.045
 Vibration     8          0.646              1.814              1.977
 Vibration     9          0.654              1.791              1.857
 Vibration    10          0.657              1.779              1.803
 Vibration    11          0.701              1.650              1.350
 Vibration    12          0.719              1.598              1.218
 Vibration    13          0.739              1.541              1.094
 Vibration    14          0.775              1.447              0.924
 Vibration    15          0.788              1.413              0.871
 Vibration    16          0.798              1.388              0.834
 Vibration    17          0.837              1.293              0.709
 Vibration    18          0.854              1.254              0.663
 Vibration    19          0.882              1.190              0.594
 Vibration    20          0.935              1.078              0.489
 Vibration    21          0.953              1.041              0.458

 Optimization completed.
    -- Stationary point found.
 Normal termination of Gaussian 16 at Tue Dec  5 10:25:59 2023.
