 Gaussian 16, Revision C.01,
 Gaussian 16:  EM64L-G16RevC.01  3-Jul-2019

 ------------------------------
 #p MN15/6-311++G(d,p) opt freq
 ------------------------------

 ---------------
 name file: 3533
 ---------------
 Symbolic Z-matrix:
 Charge =  0 Multiplicity = 1

 SCF Done:  E(RMN15) =  -673.969030248     A.U. after   16 cycles
 SCF Done:  E(RMN15) =  -673.976418503     A.U. after   14 cycles
 SCF Done:  E(RMN15) =  -673.977807413     A.U. after   15 cycles
 SCF Done:  E(RMN15) =  -673.978119803     A.U. after   13 cycles
 SCF Done:  E(RMN15) =  -673.978376344     A.U. after   13 cycles
 SCF Done:  E(RMN15) =  -673.978535204     A.U. after   15 cycles
 SCF Done:  E(RMN15) =  -673.978773698     A.U. after   13 cycles
 SCF Done:  E(RMN15) =  -673.978929346     A.U. after   15 cycles
 SCF Done:  E(RMN15) =  -673.978940503     A.U. after   12 cycles
 SCF Done:  E(RMN15) =  -673.978948345     A.U. after   11 cycles
 SCF Done:  E(RMN15) =  -673.978983254     A.U. after   10 cycles
 SCF Done:  E(RMN15) =  -673.978984099     A.U. after   11 cycles
 SCF Done:  E(RMN15) =  -673.978985191     A.U. after   12 cycles
 SCF Done:  E(RMN15) =  -673.978986524     A.U. after   12 cycles
 SCF Done:  E(RMN15) =  -673.978988472     A.U. after   12 cycles
 SCF Done:  E(RMN15) =  -673.978990782     A.U. after   13 cycles
 SCF Done:  E(RMN15) =  -673.978991003     A.U. after   12 cycles
 SCF Done:  E(RMN15) =  -673.978990798     A.U. after   12 cycles
 SCF Done:  E(RMN15) =  -673.978991352     A.U. after   12 cycles
 Optimization completed.
    -- Stationary point found.
 Normal termination of Gaussian 16 at Wed Dec  6 17:01:45 2023.

 ----------------------------------------------------------------------
 #P Geom=AllCheck Guess=TCheck SCRF=Check GenChk RMN15/6-311++G(d,p) Fr
 eq
 ----------------------------------------------------------------------

 Structure from the checkpoint file:  "/home/exlonk/in_progress/3533.chk"
 ---------------
 name file: 3533
 ---------------
 Charge =  0 Multiplicity = 1

                         Standard orientation:
 ---------------------------------------------------------------------
 Center     Atomic      Atomic             Coordinates (Angstroms)
 Number     Number       Type             X           Y           Z
 ---------------------------------------------------------------------
      1          7           0       -4.786412    0.152913   -0.099368
      2          6           0       -3.413734    0.000958   -0.058467
      3          6           0       -0.574020   -0.297598   -0.004847
      4          6           0       -2.558056    1.109339    0.123870
      5          6           0       -2.808946   -1.263549   -0.191084
      6          6           0       -1.182915    0.956412    0.147901
      7          6           0       -1.428349   -1.395093   -0.164282
      8          6           0        0.874067   -0.507623    0.002632
      9          6           0       -5.370645    1.436875    0.224227
     10          6           0       -5.628781   -1.023606   -0.106210
     11          6           0        3.278470    0.209812    0.014048
     12          6           0        1.828589    0.437215    0.000262
     13          6           0        3.860063   -1.040017    0.277858
     14          6           0        4.134521    1.289745   -0.242723
     15          6           0        5.238847   -1.202036    0.262912
     16          6           0        5.516214    1.129861   -0.256666
     17          6           0        6.076331   -0.119374   -0.006861
     18          1           0       -2.972253    2.100705    0.254984
     19          1           0       -3.415463   -2.151217   -0.315152
     20          1           0       -0.570452    1.838240    0.303216
     21          1           0       -0.994421   -2.385117   -0.272179
     22          1           0        1.175527   -1.553964   -0.009968
     23          1           0       -5.116728    1.769035    1.240173
     24          1           0       -6.454858    1.363695    0.149802
     25          1           0       -5.042635    2.210373   -0.477243
     26          1           0       -6.673060   -0.714783   -0.128480
     27          1           0       -5.474183   -1.654122    0.780202
     28          1           0       -5.445671   -1.637062   -0.994056
     29          1           0        1.535577    1.484737   -0.038623
     30          1           0        3.229025   -1.890343    0.511662
     31          1           0        3.701377    2.265828   -0.439742
     32          1           0        5.665801   -2.176797    0.471447
     33          1           0        6.155004    1.981609   -0.461853
     34          1           0        7.152357   -0.249128   -0.014040
 ---------------------------------------------------------------------

 SCF Done:  E(RMN15) =  -673.978991352     A.U. after    1 cycles

 The electronic state is 1-A.
 Alpha  occ. eigenvalues --  -14.11041 -10.08492 -10.07365 -10.07344 -10.04881
 Alpha  occ. eigenvalues --  -10.04046 -10.04014 -10.03990 -10.03908 -10.03876
 Alpha  occ. eigenvalues --  -10.03870 -10.03714 -10.03704 -10.03689 -10.03623
 Alpha  occ. eigenvalues --  -10.03540 -10.03456  -1.00156  -0.90624  -0.89811
 Alpha  occ. eigenvalues --   -0.84060  -0.80197  -0.79769  -0.78704  -0.76980
 Alpha  occ. eigenvalues --   -0.75802  -0.70748  -0.66213  -0.64935  -0.64319
 Alpha  occ. eigenvalues --   -0.61958  -0.59502  -0.57352  -0.55966  -0.52916
 Alpha  occ. eigenvalues --   -0.52176  -0.51916  -0.49428  -0.49191  -0.48556
 Alpha  occ. eigenvalues --   -0.46971  -0.46383  -0.45894  -0.45504  -0.45116
 Alpha  occ. eigenvalues --   -0.44200  -0.42533  -0.42484  -0.41816  -0.41281
 Alpha  occ. eigenvalues --   -0.39945  -0.37819  -0.37614  -0.36664  -0.35900
 Alpha  occ. eigenvalues --   -0.32030  -0.28903  -0.28675  -0.26715  -0.21360
 Alpha virt. eigenvalues --   -0.02676   0.01366   0.01657   0.02607   0.03729
 Alpha virt. eigenvalues --    0.03932   0.04091   0.04786   0.04975   0.06014
 Alpha virt. eigenvalues --    0.06305   0.06785   0.07557   0.07810   0.08065

 Mulliken charges:
               1
     1  N    0.116620
     2  C   -0.445572
     3  C    0.740542
     4  C   -0.334588
     5  C   -0.120370
     6  C   -0.465527
     7  C   -0.356689
     8  C    0.277914
     9  C   -0.268797
    10  C   -0.258465
    11  C    1.030229
    12  C    0.203685
    13  C   -0.935826
    14  C    0.187688
    15  C   -0.460934
    16  C   -0.311292
    17  C   -0.107105
    18  H    0.121432
    19  H    0.093802
    20  H    0.087794
    21  H    0.158330
    22  H   -0.110625
    23  H    0.132487
    24  H    0.093564
    25  H    0.126438
    26  H    0.095611
    27  H    0.131958
    28  H    0.125632
    29  H   -0.134091
    30  H    0.066959
    31  H    0.137085
    32  H    0.140368
    33  H    0.125471
    34  H    0.116273
 Sum of Mulliken charges =  -0.00000

 Dipole moment (field-independent basis, Debye):
    X=             -3.1512    Y=              0.1513    Z=              0.1893  Tot=              3.1605
 Quadrupole moment (field-independent basis, Debye-Ang):
   XX=            -78.2265   YY=            -92.4241   ZZ=           -111.0024
   XY=             -0.9447   XZ=             -0.9655   YZ=             -0.4294

  Exact polarizability:     405.722       6.516     189.114      -1.278      -2.143     114.319
 Approx polarizability:     426.338      13.760     275.303       0.216      -4.139     157.334

                      1                      2                      3
                      A                      A                      A
 Frequencies --     12.8478                33.3100                52.2703
 Red. masses --      3.3719                 4.3206                 4.1581
 Frc consts  --      0.0003                 0.0028                 0.0067
 IR Inten    --      0.0159                 1.6478                 0.5825

                      4                      5                      6
                      A                      A                      A
 Frequencies --     71.4007                71.6166                87.3977
 Red. masses --      3.3304                 2.6637                 3.0455
 Frc consts  --      0.0100                 0.0080                 0.0137
 IR Inten    --      6.6151                 0.2389                 2.8738

                      7                      8                      9
                      A                      A                      A
 Frequencies --    146.2332               166.8618               208.3167
 Red. masses --      1.9486                 3.8781                 2.5786
 Frc consts  --      0.0246                 0.0636                 0.0659
 IR Inten    --      0.8864                 0.2168                 0.0239

                     10                     11                     12
                      A                      A                      A
 Frequencies --    223.9549               240.1989               265.5965
 Red. masses --      1.7195                 1.4774                 2.4550
 Frc consts  --      0.0508                 0.0502                 0.1020
 IR Inten    --      0.4421                 0.3867                 2.0827

                     13                     14                     15
                      A                      A                      A
 Frequencies --    299.7528               377.5208               403.7912
 Red. masses --      3.3012                 3.9016                 3.3401
 Frc consts  --      0.1748                 0.3276                 0.3209
 IR Inten    --      0.0931                 1.1546                 5.6557

                     16                     17                     18
                      A                      A                      A
 Frequencies --    406.8839               422.0488               440.5248
 Red. masses --      2.9360                 2.9937                 4.0889
 Frc consts  --      0.2864                 0.3142                 0.4675
 IR Inten    --      0.7507                 0.1754                 4.1297

                     19                     20                     21
                      A                      A                      A
 Frequencies --    484.5180               498.6073               521.4561
 Red. masses --      3.2595                 3.1459                 3.7829
 Frc consts  --      0.4508                 0.4608                 0.6061
 IR Inten    --      4.2201                 0.5838                16.6196

                     22                     23                     24
                      A                      A                      A
 Frequencies --    538.3536               608.2160               615.8121
 Red. masses --      2.4093                 5.4213                 6.3819
 Frc consts  --      0.4114                 1.1816                 1.4259
 IR Inten    --     28.5003                 1.4987                 0.0643

                     25                     26                     27
                      A                      A                      A
 Frequencies --    638.4341               696.8497               726.7734
 Red. masses --      6.9763                 1.8862                 2.5748
 Frc consts  --      1.6754                 0.5397                 0.8013
 IR Inten    --      0.2447                34.0171                 6.6052

                     28                     29                     30
                      A                      A                      A
 Frequencies --    738.3050               763.4192               810.1884
 Red. masses --      4.3457                 1.9816                 1.2650
 Frc consts  --      1.3957                 0.6805                 0.4892
 IR Inten    --      0.8586                24.8461                 0.2497

                     31                     32                     33
                      A                      A                      A
 Frequencies --    826.9436               838.8225               847.3477
 Red. masses --      1.8357                 5.0101                 1.2987
 Frc consts  --      0.7396                 2.0770                 0.5494
 IR Inten    --     59.6330                 0.6073                 1.6805

                     34                     35                     36
                      A                      A                      A
 Frequencies --    877.9483               882.1126               929.9241
 Red. masses --      2.6812                 2.3005                 1.5600
 Frc consts  --      1.2176                 1.0547                 0.7948
 IR Inten    --      0.0557                 1.6002                 0.8883

                     37                     38                     39
                      A                      A                      A
 Frequencies --    954.7986               967.2406               977.1334
 Red. masses --      1.3742                 1.3455                 2.9688
 Frc consts  --      0.7381                 0.7417                 1.6701
 IR Inten    --      4.1438                 0.0706                26.1016

                     40                     41                     42
                      A                      A                      A
 Frequencies --    985.9074               988.9330              1001.0561
 Red. masses --      1.1885                 1.3374                 5.2958
 Frc consts  --      0.6806                 0.7706                 3.1268
 IR Inten    --     31.1550                 2.8930                 0.4156

                     43                     44                     45
                      A                      A                      A
 Frequencies --   1008.1521              1012.5186              1054.0132
 Red. masses --      1.2842                 2.5616                 2.1247
 Frc consts  --      0.7690                 1.5473                 1.3907
 IR Inten    --      1.9095                 0.2993                 5.1365

                     46                     47                     48
                      A                      A                      A
 Frequencies --   1076.2715              1100.6141              1125.5402
 Red. masses --      1.4055                 1.5032                 1.2409
 Frc consts  --      0.9592                 1.0729                 0.9262
 IR Inten    --     17.4271                 4.9950                 0.0946

                     49                     50                     51
                      A                      A                      A
 Frequencies --   1131.3178              1147.5021              1161.8074
 Red. masses --      1.3442                 1.3313                 1.0982
 Frc consts  --      1.0136                 1.0328                 0.8734
 IR Inten    --     28.4067                 1.9542                 0.4818

                     52                     53                     54
                      A                      A                      A
 Frequencies --   1184.3828              1188.5215              1199.3119
 Red. masses --      1.7386                 1.1136                 1.2068
 Frc consts  --      1.4369                 0.9268                 1.0227
 IR Inten    --     34.9648                 2.4452                60.7901

                     55                     56                     57
                      A                      A                      A
 Frequencies --   1222.1715              1241.0662              1284.6175
 Red. masses --      2.1866                 1.3818                 3.0427
 Frc consts  --      1.9243                 1.2540                 2.9584
 IR Inten    --      1.6484                 9.3468                38.6843

                     58                     59                     60
                      A                      A                      A
 Frequencies --   1302.8663              1319.7196              1340.9962
 Red. masses --      2.6767                 1.6609                 1.9781
 Frc consts  --      2.6770                 1.7043                 2.0958
 IR Inten    --      2.5421                 2.1906                 7.7429

                     61                     62                     63
                      A                      A                      A
 Frequencies --   1346.9312              1355.5996              1371.7511
 Red. masses --      1.5272                 1.9919                 4.5898
 Frc consts  --      1.6325                 2.1566                 5.0885
 IR Inten    --      2.4019                10.0695                 8.1896

                     64                     65                     66
                      A                      A                      A
 Frequencies --   1395.6372              1430.2464              1463.1655
 Red. masses --      3.3391                 1.2186                 2.1966
 Frc consts  --      3.8320                 1.4687                 2.7707
 IR Inten    --    309.3413                 1.6006                16.0808

                     67                     68                     69
                      A                      A                      A
 Frequencies --   1469.6383              1473.3184              1477.0192
 Red. masses --      1.0892                 1.2599                 1.5461
 Frc consts  --      1.3860                 1.6114                 1.9872
 IR Inten    --      5.9436                 7.9600                 5.5929

                     70                     71                     72
                      A                      A                      A
 Frequencies --   1477.8393              1505.0804              1518.3379
 Red. masses --      1.3746                 1.1459                 1.1176
 Frc consts  --      1.7688                 1.5294                 1.5181
 IR Inten    --     13.1816                 1.1742               101.8943

                     73                     74                     75
                      A                      A                      A
 Frequencies --   1526.8129              1567.6575              1614.6351
 Red. masses --      2.3677                 3.0827                 6.7407
 Frc consts  --      3.2520                 4.4636                10.3539
 IR Inten    --      0.6567               388.4708                10.7827

                     76                     77                     78
                      A                      A                      A
 Frequencies --   1637.9834              1661.4160              1677.0838
 Red. masses --      5.9770                 6.1000                 6.3083
 Frc consts  --      9.4483                 9.9206                10.4537
 IR Inten    --      0.8850               201.7276               232.6978

                     79                     80                     81
                      A                      A                      A
 Frequencies --   1710.6108              3011.7426              3019.3202
 Red. masses --      6.0299                 1.0459                 1.0496
 Frc consts  --     10.3959                 5.5898                 5.6373
 IR Inten    --      8.7909                93.1494               120.6041

                     82                     83                     84
                      A                      A                      A
 Frequencies --   3081.5739              3083.0862              3157.5609
 Red. masses --      1.0929                 1.0945                 1.0976
 Frc consts  --      6.1146                 6.1299                 6.4476
 IR Inten    --     19.8671                62.1256                 2.9973

                     85                     86                     87
                      A                      A                      A
 Frequencies --   3157.7905              3165.6982              3167.4725
 Red. masses --      1.0899                 1.0854                 1.0953
 Frc consts  --      6.4032                 6.4088                 6.4745
 IR Inten    --      3.1471                41.2589                43.2930

                     88                     89                     90
                      A                      A                      A
 Frequencies --   3188.0713              3189.4477              3198.8523
 Red. masses --      1.0892                 1.0872                 1.0858
 Frc consts  --      6.5225                 6.5160                 6.5460
 IR Inten    --     16.7011                13.3287                 1.8554

                     91                     92                     93
                      A                      A                      A
 Frequencies --   3204.2693              3208.9261              3216.7921
 Red. masses --      1.0879                 1.0901                 1.0944
 Frc consts  --      6.5809                 6.6138                 6.6720
 IR Inten    --      8.6729                 5.9892                34.7426

                     94                     95                     96
                      A                      A                      A
 Frequencies --   3227.8492              3235.1995              3236.1771
 Red. masses --      1.0986                 1.0914                 1.0915
 Frc consts  --      6.7442                 6.7302                 6.7350
 IR Inten    --     29.3111                16.4433                16.7040

 - Thermochemistry -
 -------------------
 Temperature   298.150 Kelvin.  Pressure   1.00000 Atm.
 Atom     1 has atomic number  7 and mass  14.00307

 Molecular mass:   223.13610 amu.
 Principal axes and moments of inertia in atomic units:
                           1         2         3
     Eigenvalues --   875.33700********************
           X            1.00000  -0.00093  -0.00082
           Y            0.00093   1.00000   0.00111
           Z            0.00081  -0.00111   1.00000
 This molecule is an asymmetric top.
 Rotational symmetry number  1.
 Warning -- assumption of classical behavior for rotation
           may cause significant error
 Rotational temperatures (Kelvin)      0.09895     0.00696     0.00654
 Rotational constants (GHZ):           2.06177     0.14499     0.13620
 Zero-point vibrational energy     754733.6 (Joules/Mol)
                                  180.38567 (Kcal/Mol)
 Warning -- explicit consideration of  24 degrees of freedom as
           vibrations may cause significant error
 Vibrational temperatures:     18.49    47.93    75.21   102.73   103.04
          (Kelvin)            125.75   210.40   240.08   299.72   322.22
                              345.59   382.13   431.28   543.17   580.97
                              585.42   607.23   633.82   697.11   717.38
                              750.26   774.57   875.09   886.02   918.56
                             1002.61  1045.66  1062.26  1098.39  1165.68
                             1189.79  1206.88  1219.14  1263.17  1269.16
                             1337.95  1373.74  1391.64  1405.88  1418.50
                             1422.85  1440.30  1450.51  1456.79  1516.49
                             1548.51  1583.54  1619.40  1627.71  1651.00
                             1671.58  1704.06  1710.02  1725.54  1758.43
                             1785.62  1848.28  1874.53  1898.78  1929.39
                             1937.93  1950.41  1973.64  2008.01  2057.81
                             2105.17  2114.48  2119.78  2125.10  2126.28
                             2165.48  2184.55  2196.74  2255.51  2323.10
                             2356.69  2390.41  2412.95  2461.19  4333.23
                             4344.13  4433.70  4435.87  4543.03  4543.36
                             4554.73  4557.29  4586.92  4588.90  4602.44
                             4610.23  4616.93  4628.25  4644.16  4654.73
                             4656.14

 Zero-point correction=                           0.287463 (Hartree/Particle)
 Thermal correction to Energy=                    0.303338
 Thermal correction to Enthalpy=                  0.304282
 Thermal correction to Gibbs Free Energy=         0.241708
 Sum of electronic and zero-point Energies=           -673.691528
 Sum of electronic and thermal Energies=              -673.675654
 Sum of electronic and thermal Enthalpies=            -673.674710
 Sum of electronic and thermal Free Energies=         -673.737284

                     E (Thermal)             CV                S
                      KCal/Mol        Cal/Mol-Kelvin    Cal/Mol-Kelvin
 Total                  190.347             60.595            131.699
 Electronic               0.000              0.000              0.000
 Translational            0.889              2.981             42.110
 Rotational               0.889              2.981             33.334
 Vibrational            188.570             54.634             56.254
 Vibration     1          0.593              1.987              7.513
 Vibration     2          0.594              1.983              5.622
 Vibration     3          0.596              1.977              4.730
 Vibration     4          0.598              1.968              4.114
 Vibration     5          0.598              1.968              4.108
 Vibration     6          0.601              1.958              3.717
 Vibration     7          0.617              1.907              2.721
 Vibration     8          0.624              1.883              2.471
 Vibration     9          0.642              1.828              2.058
 Vibration    10          0.649              1.805              1.927
 Vibration    11          0.657              1.779              1.801
 Vibration    12          0.671              1.736              1.625
 Vibration    13          0.692              1.674              1.418
 Vibration    14          0.748              1.518              1.049
 Vibration    15          0.769              1.462              0.949
 Vibration    16          0.772              1.455              0.938
 Vibration    17          0.784              1.422              0.885
 Vibration    18          0.800              1.382              0.825
 Vibration    19          0.841              1.284              0.698
 Vibration    20          0.854              1.253              0.662
 Vibration    21          0.876              1.202              0.607
 Vibration    22          0.893              1.165              0.569
 Vibration    23          0.967              1.014              0.436
 Vibration    24          0.975              0.998              0.423

                           ! Non-Optimized Parameters !
 Normal termination of Gaussian 16 at Wed Dec  6 17:21:26 2023.
