 Gaussian 16, Revision C.01,
 Gaussian 16:  EM64L-G16RevC.01  3-Jul-2019

 ------------------------------
 #p MN15/6-311++G(d,p) opt freq
 ------------------------------

 ---------------
 name file: 3550
 ---------------
 Symbolic Z-matrix:
 Charge =  0 Multiplicity = 1

 SCF Done:  E(RMN15) =  -672.782311353     A.U. after   14 cycles
 SCF Done:  E(RMN15) =  -672.790207303     A.U. after   13 cycles
 SCF Done:  E(RMN15) =  -672.791028088     A.U. after   12 cycles
 SCF Done:  E(RMN15) =  -672.791124227     A.U. after   12 cycles
 SCF Done:  E(RMN15) =  -672.791173157     A.U. after   12 cycles
 SCF Done:  E(RMN15) =  -672.791182188     A.U. after   12 cycles
 SCF Done:  E(RMN15) =  -672.791212902     A.U. after   10 cycles
 SCF Done:  E(RMN15) =  -672.791323975     A.U. after   14 cycles
 SCF Done:  E(RMN15) =  -672.791386764     A.U. after   12 cycles
 SCF Done:  E(RMN15) =  -672.791477569     A.U. after   13 cycles
 SCF Done:  E(RMN15) =  -672.794654451     A.U. after   12 cycles
 SCF Done:  E(RMN15) =  -672.794656198     A.U. after   10 cycles
 SCF Done:  E(RMN15) =  -672.794667427     A.U. after   11 cycles
 SCF Done:  E(RMN15) =  -672.794667644     A.U. after    9 cycles
 SCF Done:  E(RMN15) =  -672.794665125     A.U. after   12 cycles
 SCF Done:  E(RMN15) =  -672.794672856     A.U. after   12 cycles
 SCF Done:  E(RMN15) =  -672.794674287     A.U. after   11 cycles
 SCF Done:  E(RMN15) =  -672.794674739     A.U. after    9 cycles
 SCF Done:  E(RMN15) =  -672.794674945     A.U. after   10 cycles
 Optimization completed.
    -- Stationary point found.
 Normal termination of Gaussian 16 at Wed Dec  6 08:38:32 2023.

 ----------------------------------------------------------------------
 #P Geom=AllCheck Guess=TCheck SCRF=Check GenChk RMN15/6-311++G(d,p) Fr
 eq
 ----------------------------------------------------------------------

 Structure from the checkpoint file:  "/home/exlonk/in_progress/3550.chk"
 ---------------
 name file: 3550
 ---------------
 Charge =  0 Multiplicity = 1

                         Standard orientation:
 ---------------------------------------------------------------------
 Center     Atomic      Atomic             Coordinates (Angstroms)
 Number     Number       Type             X           Y           Z
 ---------------------------------------------------------------------
      1          7           0        0.018547    2.156214    0.082384
      2          6           0       -0.000011    0.733686    0.053339
      3          6           0       -1.256875    0.095276    0.042468
      4          6           0        1.178916   -0.034788    0.010123
      5          6           0       -1.332161   -1.337257    0.017443
      6          6           0        1.095066   -1.469257    0.027375
      7          6           0       -0.155371   -2.086811    0.029432
      8          6           0       -2.477476    0.839856    0.059509
      9          6           0        2.477360    0.560576   -0.083618
     10          6           0       -2.618019   -1.962244   -0.006913
     11          6           0        2.302946   -2.235156    0.015004
     12          6           0        0.048522    2.829940   -1.199350
     13          6           0        0.707158    2.845080    1.155810
     14          6           0       -3.686113    0.206052    0.030796
     15          6           0        3.606223   -0.205829   -0.111690
     16          6           0       -3.759953   -1.217260   -0.006714
     17          6           0        3.521299   -1.627241   -0.045659
     18          1           0       -0.213536   -3.171887    0.029763
     19          1           0       -2.409919    1.920185    0.103881
     20          1           0        2.555893    1.637623   -0.154958
     21          1           0       -2.661142   -3.046676   -0.027145
     22          1           0        2.222632   -3.317236    0.046568
     23          1           0       -0.285129    3.865749   -1.079481
     24          1           0       -0.630271    2.332114   -1.895839
     25          1           0        1.055433    2.846861   -1.651021
     26          1           0        0.124968    3.717675    1.473834
     27          1           0        1.708993    3.206117    0.875296
     28          1           0        0.816831    2.178090    2.012185
     29          1           0       -4.602452    0.785411    0.044782
     30          1           0        4.578747    0.266329   -0.192500
     31          1           0       -4.729161   -1.702408   -0.027860
     32          1           0        4.429223   -2.219173   -0.058330
 ---------------------------------------------------------------------

 SCF Done:  E(RMN15) =  -672.794674945     A.U. after    1 cycles

 The electronic state is 1-A.
 Alpha  occ. eigenvalues --  -14.08374 -10.07814 -10.06040 -10.05986 -10.05437
 Alpha  occ. eigenvalues --  -10.05320 -10.05316 -10.05017 -10.04607 -10.04574
 Alpha  occ. eigenvalues --  -10.04496 -10.04464 -10.04414 -10.04399 -10.04323
 Alpha  occ. eigenvalues --  -10.04227 -10.03941  -0.98274  -0.92440  -0.90073
 Alpha  occ. eigenvalues --   -0.84926  -0.82377  -0.79836  -0.78395  -0.75612
 Alpha  occ. eigenvalues --   -0.75218  -0.69904  -0.67843  -0.66270  -0.63438
 Alpha  occ. eigenvalues --   -0.62018  -0.57878  -0.57686  -0.55259  -0.51851
 Alpha  occ. eigenvalues --   -0.50956  -0.50766  -0.50594  -0.50122  -0.48620
 Alpha  occ. eigenvalues --   -0.47047  -0.45682  -0.45049  -0.44785  -0.43977
 Alpha  occ. eigenvalues --   -0.43445  -0.42382  -0.41798  -0.41170  -0.40991
 Alpha  occ. eigenvalues --   -0.38616  -0.37629  -0.36851  -0.34748  -0.33773
 Alpha  occ. eigenvalues --   -0.29607  -0.27535  -0.25841  -0.22478
 Alpha virt. eigenvalues --   -0.04987  -0.00192   0.02053   0.02971   0.03922
 Alpha virt. eigenvalues --    0.03995   0.04319   0.05342   0.05528   0.06219
 Alpha virt. eigenvalues --    0.06688   0.07110   0.07349   0.08045   0.08529

 Mulliken charges:
               1
     1  N    0.060090
     2  C   -0.234496
     3  C    0.297220
     4  C    0.180663
     5  C    0.373822
     6  C    0.594883
     7  C   -0.122003
     8  C   -0.265126
     9  C   -0.447458
    10  C   -0.218870
    11  C   -0.513785
    12  C   -0.125406
    13  C   -0.103485
    14  C   -0.297680
    15  C   -0.150318
    16  C   -0.281600
    17  C   -0.291526
    18  H    0.033948
    19  H    0.104499
    20  H   -0.062428
    21  H    0.107644
    22  H    0.106953
    23  H    0.132787
    24  H    0.114165
    25  H    0.111298
    26  H    0.121426
    27  H    0.112571
    28  H    0.126989
    29  H    0.137139
    30  H    0.150002
    31  H    0.124297
    32  H    0.123784
 Sum of Mulliken charges =  -0.00000

 Dipole moment (field-independent basis, Debye):
    X=              0.3609    Y=              0.3912    Z=             -0.1087  Tot=              0.5432
 Quadrupole moment (field-independent basis, Debye-Ang):
   XX=            -92.3312   YY=            -90.3692   ZZ=           -106.7486
   XY=              0.5924   XZ=              0.2959   YZ=             -0.2449

  Exact polarizability:     302.672      -3.039     214.590      -1.300      -0.149     111.601
 Approx polarizability:     413.566      -5.595     300.164      -2.794      -0.045     154.447

                      1                      2                      3
                      A                      A                      A
 Frequencies --     40.3245                79.8086                98.0549
 Red. masses --      2.4709                 3.9157                 3.7920
 Frc consts  --      0.0024                 0.0147                 0.0215
 IR Inten    --      0.6908                 0.1355                 1.4927

                      4                      5                      6
                      A                      A                      A
 Frequencies --    122.7057               145.6271               184.0398
 Red. masses --      3.1256                 1.9252                 1.1708
 Frc consts  --      0.0277                 0.0241                 0.0234
 IR Inten    --      0.1565                 1.4307                 0.2214

                      7                      8                      9
                      A                      A                      A
 Frequencies --    203.5664               220.7390               231.0218
 Red. masses --      2.3821                 2.1176                 4.2843
 Frc consts  --      0.0582                 0.0608                 0.1347
 IR Inten    --      1.2813                 0.0769                 0.2642

                     10                     11                     12
                      A                      A                      A
 Frequencies --    255.1390               306.2428               331.6246
 Red. masses --      2.7812                 3.0663                 3.4831
 Frc consts  --      0.1067                 0.1694                 0.2257
 IR Inten    --      1.0463                 1.4861                 3.9780

                     13                     14                     15
                      A                      A                      A
 Frequencies --    349.3175               395.2975               419.8190
 Red. masses --      3.6280                 6.2623                 5.7694
 Frc consts  --      0.2608                 0.5765                 0.5991
 IR Inten    --      1.9959                 0.3033                 0.7055

                     16                     17                     18
                      A                      A                      A
 Frequencies --    432.7585               481.2344               494.9898
 Red. masses --      3.2228                 2.8712                 3.5083
 Frc consts  --      0.3556                 0.3918                 0.5065
 IR Inten    --     10.2933                 0.2118                 0.1184

                     19                     20                     21
                      A                      A                      A
 Frequencies --    509.4606               563.1802               565.2152
 Red. masses --      3.9610                 5.1367                 3.3161
 Frc consts  --      0.6057                 0.9599                 0.6242
 IR Inten    --      1.7889                 0.2524                 4.8282

                     22                     23                     24
                      A                      A                      A
 Frequencies --    609.9070               637.3885               662.6049
 Red. masses --      6.7587                 6.0739                 3.5552
 Frc consts  --      1.4813                 1.4539                 0.9197
 IR Inten    --      8.8713                 1.3897                11.3233

                     25                     26                     27
                      A                      A                      A
 Frequencies --    686.5323               741.4933               746.3243
 Red. masses --      5.6367                 4.0568                 1.3432
 Frc consts  --      1.5653                 1.3142                 0.4408
 IR Inten    --      0.3584                 2.0094                70.0715

                     28                     29                     30
                      A                      A                      A
 Frequencies --    768.8485               804.8393               846.3745
 Red. masses --      1.3370                 2.7022                 5.1756
 Frc consts  --      0.4657                 1.0313                 2.1844
 IR Inten    --      1.3198                13.5003                 6.1677

                     31                     32                     33
                      A                      A                      A
 Frequencies --    858.8121               866.8468               867.8580
 Red. masses --      1.7139                 3.3862                 1.5606
 Frc consts  --      0.7448                 1.4992                 0.6925
 IR Inten    --      8.7419                 0.8045                 8.7332

                     34                     35                     36
                      A                      A                      A
 Frequencies --    904.9375               924.2589               935.8889
 Red. masses --      1.5929                 6.5986                 4.3113
 Frc consts  --      0.7686                 3.3211                 2.2249
 IR Inten    --     25.9808                 0.3656                 5.7617

                     37                     38                     39
                      A                      A                      A
 Frequencies --    985.3555               991.5934              1006.7796
 Red. masses --      1.3323                 1.3430                 1.3033
 Frc consts  --      0.7622                 0.7781                 0.7783
 IR Inten    --      0.6797                 1.7884                 0.3146

                     40                     41                     42
                      A                      A                      A
 Frequencies --   1012.1258              1033.1449              1037.5732
 Red. masses --      1.3016                 2.0562                 2.1888
 Frc consts  --      0.7856                 1.2931                 1.3883
 IR Inten    --      0.0657                 7.8963                 2.7262

                     43                     44                     45
                      A                      A                      A
 Frequencies --   1069.9018              1074.6256              1107.6342
 Red. masses --      1.4761                 1.9902                 1.2330
 Frc consts  --      0.9956                 1.3542                 0.8912
 IR Inten    --     14.2427                46.5419                 5.7052

                     46                     47                     48
                      A                      A                      A
 Frequencies --   1123.1100              1142.7602              1151.3747
 Red. masses --      1.9394                 1.3190                 1.3565
 Frc consts  --      1.4413                 1.0148                 1.0595
 IR Inten    --      1.4769                 0.6152                 7.2417

                     49                     50                     51
                      A                      A                      A
 Frequencies --   1166.2203              1171.1563              1186.3137
 Red. masses --      1.1788                 1.1370                 1.2257
 Frc consts  --      0.9446                 0.9189                 1.0163
 IR Inten    --      1.3699                 1.0963                 0.3381

                     52                     53                     54
                      A                      A                      A
 Frequencies --   1231.5634              1269.1124              1275.2098
 Red. masses --      1.6597                 2.3309                 2.7733
 Frc consts  --      1.4831                 2.2119                 2.6571
 IR Inten    --      2.7593                11.0204                16.1950

                     55                     56                     57
                      A                      A                      A
 Frequencies --   1285.2386              1319.3377              1331.1658
 Red. masses --      3.1069                 2.6313                 2.7707
 Frc consts  --      3.0238                 2.6985                 2.8927
 IR Inten    --     11.3968                 0.6297                 1.8774

                     58                     59                     60
                      A                      A                      A
 Frequencies --   1399.2082              1413.3248              1427.9858
 Red. masses --      1.7028                 3.5166                 1.7034
 Frc consts  --      1.9641                 4.1386                 2.0465
 IR Inten    --      2.3852                62.3036                 5.8939

                     61                     62                     63
                      A                      A                      A
 Frequencies --   1429.4932              1448.9563              1459.9607
 Red. masses --      1.8771                 1.3297                 1.0567
 Frc consts  --      2.2600                 1.6448                 1.3271
 IR Inten    --      8.1902                 3.6332                 7.5247

                     64                     65                     66
                      A                      A                      A
 Frequencies --   1467.1488              1470.5480              1471.4412
 Red. masses --      2.8224                 2.4313                 1.1855
 Frc consts  --      3.5795                 3.0978                 1.5123
 IR Inten    --     17.3348                 1.2453                10.8683

                     67                     68                     69
                      A                      A                      A
 Frequencies --   1484.9073              1494.7984              1512.0427
 Red. masses --      2.2740                 1.2502                 1.7376
 Frc consts  --      2.9542                 1.6458                 2.3406
 IR Inten    --      0.8975                22.0424                 1.8764

                     70                     71                     72
                      A                      A                      A
 Frequencies --   1532.9943              1582.3773              1622.0518
 Red. masses --      1.8158                 6.8352                 7.9560
 Frc consts  --      2.5142                10.0838                12.3331
 IR Inten    --     34.5601                 3.2409                10.1976

                     73                     74                     75
                      A                      A                      A
 Frequencies --   1633.4021              1686.9616              1690.5023
 Red. masses --      6.1817                 6.7800                 6.3698
 Frc consts  --      9.7172                11.3682                10.7252
 IR Inten    --      2.8337                 0.3487                 5.8978

                     76                     77                     78
                      A                      A                      A
 Frequencies --   2966.8219              2986.7805              3057.8946
 Red. masses --      1.0564                 1.0537                 1.0849
 Frc consts  --      5.4785                 5.5381                 5.9771
 IR Inten    --     86.4908                98.7091                73.5132

                     79                     80                     81
                      A                      A                      A
 Frequencies --   3075.2212              3133.6217              3148.5381
 Red. masses --      1.0784                 1.1008                 1.0969
 Frc consts  --      6.0088                 6.3688                 6.4068
 IR Inten    --     35.8678                20.8586                17.6006

                     82                     83                     84
                      A                      A                      A
 Frequencies --   3186.4146              3194.0019              3194.4202
 Red. masses --      1.0904                 1.0865                 1.0868
 Frc consts  --      6.5228                 6.5306                 6.5343
 IR Inten    --     10.6422                 1.3155                 4.7779

                     85                     86                     87
                      A                      A                      A
 Frequencies --   3205.9990              3208.2144              3221.2124
 Red. masses --      1.0889                 1.0895                 1.0945
 Frc consts  --      6.5941                 6.6068                 6.6911
 IR Inten    --     13.0431                13.2272                24.2809

                     88                     89                     90
                      A                      A                      A
 Frequencies --   3223.7450              3232.2353              3245.8040
 Red. masses --      1.0956                 1.0957                 1.0927
 Frc consts  --      6.7087                 6.7446                 6.7825
 IR Inten    --     27.9696                22.3014                14.4191

 - Thermochemistry -
 -------------------
 Temperature   298.150 Kelvin.  Pressure   1.00000 Atm.
 Atom     1 has atomic number  7 and mass  14.00307

 Molecular mass:   221.12045 amu.
 Principal axes and moments of inertia in atomic units:
                           1         2         3
     Eigenvalues --  2445.762854183.483676283.22431
           X            0.99995   0.01027   0.00128
           Y           -0.01027   0.99995  -0.00118
           Z           -0.00129   0.00117   1.00000
 This molecule is an asymmetric top.
 Rotational symmetry number  1.
 Warning -- assumption of classical behavior for rotation
           may cause significant error
 Rotational temperatures (Kelvin)      0.03541     0.02070     0.01378
 Rotational constants (GHZ):           0.73791     0.43140     0.28723
 Zero-point vibrational energy     698460.1 (Joules/Mol)
                                  166.93597 (Kcal/Mol)
 Warning -- explicit consideration of  22 degrees of freedom as
           vibrations may cause significant error
 Vibrational temperatures:     58.02   114.83   141.08   176.55   209.52
          (Kelvin)            264.79   292.89   317.59   332.39   367.09
                              440.62   477.13   502.59   568.74   604.03
                              622.64   692.39   712.18   733.00   810.29
                              813.22   877.52   917.06   953.34   987.77
                             1066.84  1073.79  1106.20  1157.98  1217.74
                             1235.64  1247.20  1248.65  1302.00  1329.80
                             1346.54  1417.71  1426.68  1448.53  1456.22
                             1486.47  1492.84  1539.35  1546.15  1593.64
                             1615.90  1644.18  1656.57  1677.93  1685.03
                             1706.84  1771.94  1825.97  1834.74  1849.17
                             1898.23  1915.25  2013.15  2033.46  2054.55
                             2056.72  2084.72  2100.56  2110.90  2115.79
                             2117.08  2136.45  2150.68  2175.49  2205.64
                             2276.69  2333.77  2350.10  2427.16  2432.26
                             4268.60  4297.31  4399.63  4424.56  4508.58
                             4530.04  4584.54  4595.46  4596.06  4612.72
                             4615.90  4634.61  4638.25  4650.47  4669.99

 Zero-point correction=                           0.266029 (Hartree/Particle)
 Thermal correction to Energy=                    0.280194
 Thermal correction to Enthalpy=                  0.281138
 Thermal correction to Gibbs Free Energy=         0.225345
 Sum of electronic and zero-point Energies=           -672.528646
 Sum of electronic and thermal Energies=              -672.514481
 Sum of electronic and thermal Enthalpies=            -672.513537
 Sum of electronic and thermal Free Energies=         -672.569329

                     E (Thermal)             CV                S
                      KCal/Mol        Cal/Mol-Kelvin    Cal/Mol-Kelvin
 Total                  175.824             56.882            117.425
 Electronic               0.000              0.000              0.000
 Translational            0.889              2.981             42.083
 Rotational               0.889              2.981             32.530
 Vibrational            174.047             50.921             42.811
 Vibration     1          0.594              1.981              5.243
 Vibration     2          0.600              1.963              3.896
 Vibration     3          0.603              1.951              3.493
 Vibration     4          0.610              1.930              3.057
 Vibration     5          0.617              1.907              2.729
 Vibration     6          0.631              1.862              2.287
 Vibration     7          0.639              1.835              2.101
 Vibration     8          0.647              1.809              1.953
 Vibration     9          0.653              1.794              1.871
 Vibration    10          0.666              1.754              1.695
 Vibration    11          0.697              1.662              1.383
 Vibration    12          0.714              1.612              1.252
 Vibration    13          0.727              1.577              1.169
 Vibration    14          0.762              1.480              0.980
 Vibration    15          0.782              1.427              0.893
 Vibration    16          0.794              1.399              0.850
 Vibration    17          0.838              1.292              0.707
 Vibration    18          0.851              1.261              0.671
 Vibration    19          0.865              1.229              0.635
 Vibration    20          0.919              1.111              0.518
 Vibration    21          0.921              1.107              0.514
 Vibration    22          0.969              1.011              0.433

 Optimization completed.
    -- Stationary point found.
 Normal termination of Gaussian 16 at Wed Dec  6 08:58:53 2023.
