 Gaussian 16, Revision C.01,
 Gaussian 16:  EM64L-G16RevC.01  3-Jul-2019

 ------------------------------
 #p MN15/6-311++G(d,p) opt freq
 ------------------------------

 ---------------
 name file: 3578
 ---------------
 Symbolic Z-matrix:
 Charge =  0 Multiplicity = 1

 SCF Done:  E(RMN15) =  -709.888329492     A.U. after   15 cycles
 SCF Done:  E(RMN15) =  -709.895041373     A.U. after   13 cycles
 SCF Done:  E(RMN15) =  -709.895728798     A.U. after   13 cycles
 SCF Done:  E(RMN15) =  -709.895747570     A.U. after   11 cycles
 SCF Done:  E(RMN15) =  -709.895747441     A.U. after   11 cycles
 SCF Done:  E(RMN15) =  -709.895751885     A.U. after   11 cycles
 SCF Done:  E(RMN15) =  -709.895752677     A.U. after   10 cycles
 SCF Done:  E(RMN15) =  -709.895757237     A.U. after   12 cycles
 SCF Done:  E(RMN15) =  -709.871720867     A.U. after   17 cycles
 SCF Done:  E(RMN15) =  -709.859112806     A.U. after   16 cycles
 SCF Done:  E(RMN15) =  -709.904685572     A.U. after   13 cycles
 SCF Done:  E(RMN15) =  -709.904702432     A.U. after   12 cycles
 SCF Done:  E(RMN15) =  -709.904713490     A.U. after   12 cycles
 SCF Done:  E(RMN15) =  -709.904716472     A.U. after   11 cycles
 SCF Done:  E(RMN15) =  -709.904718707     A.U. after   11 cycles
 SCF Done:  E(RMN15) =  -709.904720665     A.U. after   11 cycles
 SCF Done:  E(RMN15) =  -709.904722637     A.U. after   11 cycles
 SCF Done:  E(RMN15) =  -709.904723115     A.U. after   10 cycles
 SCF Done:  E(RMN15) =  -709.904723195     A.U. after    9 cycles
 Optimization completed.
    -- Stationary point found.
 Normal termination of Gaussian 16 at Tue Dec  5 11:02:50 2023.

 ----------------------------------------------------------------------
 #P Geom=AllCheck Guess=TCheck SCRF=Check GenChk RMN15/6-311++G(d,p) Fr
 eq
 ----------------------------------------------------------------------

 Structure from the checkpoint file:  "/home/exlonk/in_progress/3578.chk"
 ---------------
 name file: 3578
 ---------------
 Charge =  0 Multiplicity = 1

                         Standard orientation:
 ---------------------------------------------------------------------
 Center     Atomic      Atomic             Coordinates (Angstroms)
 Number     Number       Type             X           Y           Z
 ---------------------------------------------------------------------
      1          8           0        1.565814    2.447234    0.123631
      2          7           0       -4.068057   -0.510693    0.022982
      3          6           0       -2.756020   -0.103796    0.029462
      4          6           0       -0.044585    0.730015    0.015569
      5          6           0       -1.723549   -0.968787    0.452343
      6          6           0       -2.393058    1.200361   -0.381070
      7          6           0       -0.400631   -0.556624    0.434629
      8          6           0       -1.070983    1.600394   -0.372962
      9          6           0        1.344603    1.248229    0.047775
     10          6           0        2.498348    0.291547   -0.013945
     11          6           0       -4.415984   -1.834864    0.493925
     12          6           0       -5.112997    0.419722   -0.351704
     13          6           0        2.466818   -0.872508   -0.786355
     14          6           0        3.669959    0.635634    0.665967
     15          6           0        3.592516   -1.687767   -0.868135
     16          6           0        4.785247   -0.190315    0.602572
     17          6           0        4.747400   -1.353645   -0.165638
     18          1           0       -1.955651   -1.965460    0.803856
     19          1           0       -3.152118    1.901727   -0.701888
     20          1           0        0.364787   -1.240864    0.784287
     21          1           0       -0.801548    2.607711   -0.670521
     22          1           0       -5.491130   -1.977068    0.397420
     23          1           0       -4.146091   -1.980567    1.547063
     24          1           0       -3.919377   -2.613661   -0.095184
     25          1           0       -6.076321   -0.084425   -0.293937
     26          1           0       -4.982746    0.779693   -1.378102
     27          1           0       -5.144078    1.290956    0.313491
     28          1           0        1.570967   -1.123926   -1.343567
     29          1           0        3.684433    1.559058    1.233628
     30          1           0        3.569099   -2.581143   -1.481657
     31          1           0        5.686883    0.073623    1.143338
     32          1           0        5.620270   -1.994245   -0.222753
 ---------------------------------------------------------------------

 SCF Done:  E(RMN15) =  -709.904723195     A.U. after    1 cycles

 The electronic state is 1-A.
 Alpha  occ. eigenvalues --  -18.77773 -14.12068 -10.12136 -10.09623 -10.08086
 Alpha  occ. eigenvalues --  -10.08036 -10.05117 -10.05032 -10.04967 -10.04937
 Alpha  occ. eigenvalues --  -10.04727 -10.04592 -10.04573 -10.04508 -10.04157
 Alpha  occ. eigenvalues --  -10.04080 -10.03857  -1.07191  -1.01130  -0.91119
 Alpha  occ. eigenvalues --   -0.90146  -0.81912  -0.80502  -0.79771  -0.79406
 Alpha  occ. eigenvalues --   -0.77660  -0.72839  -0.67735  -0.65510  -0.65152
 Alpha  occ. eigenvalues --   -0.63296  -0.60243  -0.58442  -0.56095  -0.53846
 Alpha  occ. eigenvalues --   -0.52698  -0.52167  -0.50093  -0.49602  -0.48437
 Alpha  occ. eigenvalues --   -0.48203  -0.47141  -0.46764  -0.46258  -0.46162
 Alpha  occ. eigenvalues --   -0.45235  -0.43965  -0.43207  -0.42269  -0.42039
 Alpha  occ. eigenvalues --   -0.40394  -0.39817  -0.38376  -0.37706  -0.33532
 Alpha  occ. eigenvalues --   -0.30017  -0.29718  -0.29329  -0.28517  -0.23886
 Alpha virt. eigenvalues --   -0.03524   0.00239   0.01314   0.01541   0.02263
 Alpha virt. eigenvalues --    0.03559   0.04236   0.04811   0.05373   0.06070
 Alpha virt. eigenvalues --    0.06435   0.06839   0.06997   0.07553   0.08150

 Mulliken charges:
               1
     1  O   -0.237257
     2  N    0.116267
     3  C   -0.756309
     4  C    1.448307
     5  C   -0.308819
     6  C   -0.035314
     7  C   -0.716985
     8  C    0.232349
     9  C   -1.104835
    10  C    1.350714
    11  C   -0.256225
    12  C   -0.240335
    13  C   -0.823883
    14  C   -0.035582
    15  C   -0.182447
    16  C   -0.176786
    17  C   -0.246837
    18  H    0.115864
    19  H    0.123515
    20  H    0.120624
    21  H    0.178788
    22  H    0.097357
    23  H    0.134621
    24  H    0.129385
    25  H    0.096659
    26  H    0.128983
    27  H    0.134068
    28  H    0.135067
    29  H    0.175292
    30  H    0.137427
    31  H    0.138375
    32  H    0.127954
 Sum of Mulliken charges =  -0.00000

 Dipole moment (field-independent basis, Debye):
    X=             -3.7726    Y=             -3.8220    Z=             -0.0842  Tot=              5.3709
 Quadrupole moment (field-independent basis, Debye-Ang):
   XX=            -73.8543   YY=           -103.6746   ZZ=           -103.1671
   XY=             -4.9407   XZ=              2.2006   YZ=             -0.2703

  Exact polarizability:     291.770       1.896     181.331       9.877       2.895     122.137
 Approx polarizability:     319.525       8.004     264.764      17.671       7.031     172.709

                      1                      2                      3
                      A                      A                      A
 Frequencies --     34.5254                47.0786                53.7398
 Red. masses --      3.6812                 3.6935                 3.5467
 Frc consts  --      0.0026                 0.0048                 0.0060
 IR Inten    --      2.0032                 1.7524                 0.2255

                      4                      5                      6
                      A                      A                      A
 Frequencies --     68.3005                90.4387               109.7101
 Red. masses --      3.2700                 2.6628                 3.7900
 Frc consts  --      0.0090                 0.0128                 0.0269
 IR Inten    --      0.8458                 0.6931                 1.7213

                      7                      8                      9
                      A                      A                      A
 Frequencies --    167.5182               175.9582               224.6180
 Red. masses --      3.0760                 3.4718                 1.7829
 Frc consts  --      0.0509                 0.0633                 0.0530
 IR Inten    --      2.0057                 0.7030                 0.6061

                     10                     11                     12
                      A                      A                      A
 Frequencies --    233.2871               241.7683               283.9317
 Red. masses --      1.3221                 4.7883                 3.8976
 Frc consts  --      0.0424                 0.1649                 0.1851
 IR Inten    --      0.2156                 0.7034                 2.1418

                     13                     14                     15
                      A                      A                      A
 Frequencies --    311.3764               365.7988               407.8952
 Red. masses --      3.3465                 5.9491                 3.4792
 Frc consts  --      0.1912                 0.4690                 0.3411
 IR Inten    --      3.5971                 0.9540                 1.2632

                     16                     17                     18
                      A                      A                      A
 Frequencies --    413.4804               434.0377               462.2069
 Red. masses --      3.2806                 3.0745                 3.4170
 Frc consts  --      0.3305                 0.3413                 0.4301
 IR Inten    --      3.4119                 0.3384                 1.4751

                     19                     20                     21
                      A                      A                      A
 Frequencies --    476.7759               515.6008               557.8767
 Red. masses --      3.5868                 3.0214                 3.9513
 Frc consts  --      0.4804                 0.4732                 0.7246
 IR Inten    --      6.1279                 8.2996                 0.6761

                     22                     23                     24
                      A                      A                      A
 Frequencies --    600.6528               612.9098               633.1988
 Red. masses --      4.9576                 6.4281                 6.7885
 Frc consts  --      1.0538                 1.4227                 1.6036
 IR Inten    --     32.6357                 1.3135                 2.7809

                     25                     26                     27
                      A                      A                      A
 Frequencies --    682.5500               699.0386               710.7039
 Red. masses --      4.3839                 4.2150                 1.5981
 Frc consts  --      1.2033                 1.2135                 0.4756
 IR Inten    --     22.2337                 6.1165                62.5085

                     28                     29                     30
                      A                      A                      A
 Frequencies --    754.0518               780.3497               808.6260
 Red. masses --      2.6026                 5.3422                 2.6142
 Frc consts  --      0.8719                 1.9167                 1.0071
 IR Inten    --     28.1407                 7.1201                12.7308

                     31                     32                     33
                      A                      A                      A
 Frequencies --    818.3926               848.0699               868.3427
 Red. masses --      1.2703                 2.1120                 1.2536
 Frc consts  --      0.5013                 0.8950                 0.5569
 IR Inten    --      3.2465                36.0186                 1.9482

                     34                     35                     36
                      A                      A                      A
 Frequencies --    935.7155               959.7938               976.1768
 Red. masses --      4.1418                 1.6345                 2.7745
 Frc consts  --      2.1366                 0.8871                 1.5577
 IR Inten    --     51.8908                 9.3951                16.5074

                     37                     38                     39
                      A                      A                      A
 Frequencies --    981.9260               993.2766              1005.1525
 Red. masses --      1.4141                 1.3515                 1.8359
 Frc consts  --      0.8033                 0.7856                 1.0928
 IR Inten    --      0.2821                 4.5980                 0.2866

                     40                     41                     42
                      A                      A                      A
 Frequencies --   1005.3738              1016.7406              1019.9829
 Red. masses --      2.6601                 2.5359                 1.3475
 Frc consts  --      1.5842                 1.5446                 0.8259
 IR Inten    --      1.7444                 6.9279                 1.9350

                     43                     44                     45
                      A                      A                      A
 Frequencies --   1052.6883              1077.2548              1099.9548
 Red. masses --      2.0377                 1.4073                 1.4615
 Frc consts  --      1.3304                 0.9622                 1.0419
 IR Inten    --      2.8332                18.2797                 6.5504

                     46                     47                     48
                      A                      A                      A
 Frequencies --   1127.6462              1129.1339              1146.7856
 Red. masses --      1.2406                 1.3295                 1.2714
 Frc consts  --      0.9295                 0.9987                 0.9852
 IR Inten    --      0.0272                 4.2229                 4.2949

                     49                     50                     51
                      A                      A                      A
 Frequencies --   1163.9375              1172.0489              1184.1277
 Red. masses --      1.1192                 1.9812                 1.1473
 Frc consts  --      0.8934                 1.6035                 0.9478
 IR Inten    --      3.0950                64.6783                61.3853

                     52                     53                     54
                      A                      A                      A
 Frequencies --   1186.3242              1211.1458              1287.9008
 Red. masses --      1.5934                 1.4638                 2.9621
 Frc consts  --      1.3213                 1.2651                 2.8947
 IR Inten    --      0.3588                69.4579                30.3653

                     55                     56                     57
                      A                      A                      A
 Frequencies --   1311.1601              1329.5010              1339.3277
 Red. masses --      2.1964                 1.6564                 2.3513
 Frc consts  --      2.2247                 1.7250                 2.4851
 IR Inten    --    200.6489                15.1318               301.3159

                     58                     59                     60
                      A                      A                      A
 Frequencies --   1345.3261              1377.6472              1401.3656
 Red. masses --      3.7755                 5.9743                 3.0194
 Frc consts  --      4.0261                 6.6805                 3.4936
 IR Inten    --      4.0867                20.4641               274.4550

                     61                     62                     63
                      A                      A                      A
 Frequencies --   1430.5769              1463.6711              1469.3493
 Red. masses --      1.2226                 2.4461                 1.0412
 Frc consts  --      1.4742                 3.0876                 1.3244
 IR Inten    --      3.6677                17.8687                 0.4819

                     64                     65                     66
                      A                      A                      A
 Frequencies --   1473.7279              1475.0983              1478.2129
 Red. masses --      1.6488                 1.6221                 1.0512
 Frc consts  --      2.1099                 2.0796                 1.3534
 IR Inten    --     11.1388                 6.0069                15.9940

                     67                     68                     69
                      A                      A                      A
 Frequencies --   1506.1078              1518.2880              1521.6326
 Red. masses --      1.1496                 1.1490                 2.2830
 Frc consts  --      1.5364                 1.5605                 3.1143
 IR Inten    --      2.1795                66.0528                33.9891

                     70                     71                     72
                      A                      A                      A
 Frequencies --   1571.1015              1611.3315              1643.1977
 Red. masses --      3.2422                 7.1208                 6.3467
 Frc consts  --      4.7152                10.8930                10.0967
 IR Inten    --    161.8715                31.7659                 7.8500

                     73                     74                     75
                      A                      A                      A
 Frequencies --   1663.9326              1665.5121              1754.4207
 Red. masses --      6.3072                 6.1641                12.4797
 Frc consts  --     10.2886                10.0743                22.6320
 IR Inten    --    103.8446               467.3000               226.2026

                     76                     77                     78
                      A                      A                      A
 Frequencies --   3025.5965              3033.2950              3080.2403
 Red. masses --      1.0390                 1.0416                 1.1016
 Frc consts  --      5.6041                 5.6467                 6.1582
 IR Inten    --     92.2703                73.2880                22.9336

                     79                     80                     81
                      A                      A                      A
 Frequencies --   3082.8011              3162.7156              3173.2179
 Red. masses --      1.1036                 1.0975                 1.0952
 Frc consts  --      6.1794                 6.4681                 6.4974
 IR Inten    --     51.6439                 2.7051                39.0195

                     82                     83                     84
                      A                      A                      A
 Frequencies --   3200.5236              3208.2523              3210.9304
 Red. masses --      1.0851                 1.0885                 1.0886
 Frc consts  --      6.5487                 6.6012                 6.6125
 IR Inten    --      0.7239                 7.2814                 7.4597

                     85                     86                     87
                      A                      A                      A
 Frequencies --   3216.9498              3219.9688              3225.2785
 Red. masses --      1.0919                 1.0882                 1.0952
 Frc consts  --      6.6576                 6.6476                 6.7123
 IR Inten    --     13.6118                 0.6450                16.0317

                     88                     89                     90
                      A                      A                      A
 Frequencies --   3231.4920              3238.2570              3239.8985
 Red. masses --      1.0979                 1.0919                 1.0930
 Frc consts  --      6.7547                 6.7459                 6.7596
 IR Inten    --     18.2241                11.4758                11.7558

 - Thermochemistry -
 -------------------
 Temperature   298.150 Kelvin.  Pressure   1.00000 Atm.
 Atom     1 has atomic number  8 and mass  15.99491

 Molecular mass:   225.11536 amu.
 Principal axes and moments of inertia in atomic units:
                           1         2         3
     Eigenvalues --  1436.196848476.174959532.91028
           X            1.00000  -0.00045   0.00117
           Y            0.00046   0.99998  -0.00703
           Z           -0.00117   0.00703   0.99997
 This molecule is an asymmetric top.
 Rotational symmetry number  1.
 Warning -- assumption of classical behavior for rotation
           may cause significant error
 Rotational temperatures (Kelvin)      0.06031     0.01022     0.00909
 Rotational constants (GHZ):           1.25661     0.21292     0.18932
 Zero-point vibrational energy     694586.5 (Joules/Mol)
                                  166.01017 (Kcal/Mol)
 Warning -- explicit consideration of  23 degrees of freedom as
           vibrations may cause significant error
 Vibrational temperatures:     49.67    67.74    77.32    98.27   130.12
          (Kelvin)            157.85   241.02   253.16   323.18   335.65
                              347.85   408.51   448.00   526.30   586.87
                              594.91   624.48   665.01   685.97   741.83
                              802.66   864.21   881.84   911.03   982.04
                             1005.76  1022.54  1084.91  1122.75  1163.43
                             1177.48  1220.18  1249.35  1346.29  1380.93
                             1404.50  1412.77  1429.10  1446.19  1446.51
                             1462.86  1467.53  1514.58  1549.93  1582.59
                             1622.43  1624.57  1649.97  1674.65  1686.32
                             1703.70  1706.86  1742.57  1853.00  1886.47
                             1912.86  1926.99  1935.62  1982.13  2016.25
                             2058.28  2105.90  2114.07  2120.37  2122.34
                             2126.82  2166.95  2184.48  2189.29  2260.46
                             2318.35  2364.20  2394.03  2396.30  2524.22
                             4353.16  4364.23  4431.78  4435.46  4550.44
                             4565.55  4604.84  4615.96  4619.81  4628.47
                             4632.82  4640.46  4649.40  4659.13  4661.49

 Zero-point correction=                           0.264554 (Hartree/Particle)
 Thermal correction to Energy=                    0.279859
 Thermal correction to Enthalpy=                  0.280803
 Thermal correction to Gibbs Free Energy=         0.220740
 Sum of electronic and zero-point Energies=           -709.640169
 Sum of electronic and thermal Energies=              -709.624864
 Sum of electronic and thermal Enthalpies=            -709.623920
 Sum of electronic and thermal Free Energies=         -709.683984

                     E (Thermal)             CV                S
                      KCal/Mol        Cal/Mol-Kelvin    Cal/Mol-Kelvin
 Total                  175.614             58.499            126.414
 Electronic               0.000              0.000              0.000
 Translational            0.889              2.981             42.137
 Rotational               0.889              2.981             33.117
 Vibrational            173.837             52.537             51.160
 Vibration     1          0.594              1.983              5.551
 Vibration     2          0.595              1.979              4.936
 Vibration     3          0.596              1.976              4.675
 Vibration     4          0.598              1.969              4.202
 Vibration     5          0.602              1.956              3.651
 Vibration     6          0.606              1.941              3.274
 Vibration     7          0.624              1.882              2.463
 Vibration     8          0.628              1.872              2.371
 Vibration     9          0.649              1.804              1.922
 Vibration    10          0.654              1.790              1.854
 Vibration    11          0.658              1.776              1.790
 Vibration    12          0.682              1.703              1.510
 Vibration    13          0.700              1.652              1.355
 Vibration    14          0.739              1.543              1.097
 Vibration    15          0.772              1.453              0.934
 Vibration    16          0.777              1.441              0.914
 Vibration    17          0.795              1.396              0.846
 Vibration    18          0.820              1.334              0.760
 Vibration    19          0.833              1.302              0.719
 Vibration    20          0.871              1.215              0.620
 Vibration    21          0.913              1.122              0.528
 Vibration    22          0.959              1.030              0.449
 Vibration    23          0.972              1.005              0.428

 Optimization completed on the basis of negligible forces.
    -- Stationary point found.
 Normal termination of Gaussian 16 at Tue Dec  5 11:19:31 2023.
