 Gaussian 16, Revision C.01,
 Gaussian 16:  EM64L-G16RevC.01  3-Jul-2019

 ------------------------------
 #p MN15/6-311++G(d,p) opt freq
 ------------------------------

 ---------------
 name file: 3935
 ---------------
 Symbolic Z-matrix:
 Charge =  0 Multiplicity = 1

 SCF Done:  E(RMN15) =  -1034.31488459     A.U. after   15 cycles
 SCF Done:  E(RMN15) =  -1034.32356384     A.U. after   17 cycles
 SCF Done:  E(RMN15) =  -1034.32558713     A.U. after   16 cycles
 SCF Done:  E(RMN15) =  -1034.32620662     A.U. after   15 cycles
 SCF Done:  E(RMN15) =  -1034.32669718     A.U. after   16 cycles
 SCF Done:  E(RMN15) =  -1034.32684717     A.U. after   12 cycles
 SCF Done:  E(RMN15) =  -1034.32688528     A.U. after   12 cycles
 SCF Done:  E(RMN15) =  -1034.32693520     A.U. after   14 cycles
 SCF Done:  E(RMN15) =  -1034.32693659     A.U. after   12 cycles
 SCF Done:  E(RMN15) =  -1034.32693725     A.U. after   12 cycles
 SCF Done:  E(RMN15) =  -1034.32693733     A.U. after   11 cycles
 SCF Done:  E(RMN15) =  -1034.32693736     A.U. after    9 cycles
 SCF Done:  E(RMN15) =  -1034.32693738     A.U. after    9 cycles
 Optimization completed.
    -- Stationary point found.
 Normal termination of Gaussian 16 at Mon Dec  4 21:42:24 2023.

 ----------------------------------------------------------------------
 #P Geom=AllCheck Guess=TCheck SCRF=Check GenChk RMN15/6-311++G(d,p) Fr
 eq
 ----------------------------------------------------------------------

 Structure from the checkpoint file:  "/home/exlonk/in_progress/3935.chk"
 ---------------
 name file: 3935
 ---------------
 Charge =  0 Multiplicity = 1

                         Standard orientation:
 ---------------------------------------------------------------------
 Center     Atomic      Atomic             Coordinates (Angstroms)
 Number     Number       Type             X           Y           Z
 ---------------------------------------------------------------------
      1          8           0       -4.037915   -2.507671    1.409939
      2          8           0        4.037891   -2.507673   -1.409930
      3          7           0       -1.837055    0.663558    0.154202
      4          7           0        1.837130    0.663704   -0.154390
      5          6           0       -0.464650    0.753384    0.616097
      6          6           0        0.464722    0.753536   -0.616271
      7          6           0       -0.275805    2.031080    1.440248
      8          6           0        0.275798    2.031384   -1.440165
      9          6           0       -0.480615    3.286053    0.593705
     10          6           0        0.480518    3.286202   -0.593371
     11          6           0       -2.529976   -0.327438    0.545520
     12          6           0        2.530051   -0.327283   -0.545732
     13          6           0       -3.935023   -0.509528    0.139196
     14          6           0        3.935055   -0.509458   -0.139294
     15          6           0       -4.665628   -1.616268    0.591344
     16          6           0        4.665611   -1.616274   -0.591335
     17          6           0       -4.568414    0.411953   -0.700638
     18          6           0        4.568451    0.412015    0.700543
     19          6           0       -5.995114   -1.788957    0.207613
     20          6           0        5.995056   -1.789043   -0.207499
     21          6           0       -5.890650    0.246551   -1.086601
     22          6           0        5.890647    0.246535    1.086609
     23          6           0       -6.604165   -0.861075   -0.627841
     24          6           0        6.604114   -0.861165    0.627954
     25          1           0       -0.201217   -0.120764    1.235275
     26          1           0        0.201343   -0.120507   -1.235620
     27          1           0        0.743217    2.020802    1.841764
     28          1           0       -0.970418    2.009868    2.285927
     29          1           0       -0.743221    2.021116   -1.841691
     30          1           0        0.970417    2.010390   -2.285845
     31          1           0       -0.332217    4.178268    1.209364
     32          1           0       -1.512982    3.309672    0.226813
     33          1           0        0.332061    4.178529   -1.208854
     34          1           0        1.512883    3.309818   -0.226473
     35          1           0       -2.109632   -1.094117    1.207628
     36          1           0        2.109697   -1.093964   -1.207832
     37          1           0       -3.984147    1.261056   -1.037025
     38          1           0        3.984223    1.261178    1.036845
     39          1           0       -6.547274   -2.652879    0.567303
     40          1           0        6.547179   -2.653024   -0.567106
     41          1           0       -6.365273    0.970545   -1.737621
     42          1           0        6.365277    0.970527    1.737627
     43          1           0       -7.638127   -1.004658   -0.919997
     44          1           0        7.638044   -1.004810    0.920193
     45          1           0       -4.640298   -3.219142    1.653386
     46          1           0        4.640238   -3.219201   -1.653298
 ---------------------------------------------------------------------

 SCF Done:  E(RMN15) =  -1034.32693738     A.U. after    1 cycles

 The electronic state is 1-A.
 Alpha  occ. eigenvalues --  -18.84292 -18.84292 -14.07528 -14.07527 -10.11587
 Alpha  occ. eigenvalues --  -10.11587 -10.07746 -10.07745 -10.05805 -10.05774
 Alpha  occ. eigenvalues --  -10.05342 -10.05342 -10.04956 -10.04956 -10.04876
 Alpha  occ. eigenvalues --  -10.04876 -10.04514 -10.04514 -10.04037 -10.04037
 Alpha  occ. eigenvalues --  -10.01742 -10.01740 -10.01357 -10.01322  -1.11857
 Alpha  occ. eigenvalues --   -1.11857  -0.97730  -0.95987  -0.90903  -0.90622
 Alpha  occ. eigenvalues --   -0.85876  -0.81396  -0.81180  -0.79030  -0.79030
 Alpha  occ. eigenvalues --   -0.77139  -0.76471  -0.69708  -0.68843  -0.68026
 Alpha  occ. eigenvalues --   -0.66774  -0.63887  -0.63548  -0.62081  -0.60302
 Alpha  occ. eigenvalues --   -0.59570  -0.59338  -0.57076  -0.55585  -0.54815
 Alpha  occ. eigenvalues --   -0.52872  -0.52046  -0.51648  -0.49523  -0.49340
 Alpha  occ. eigenvalues --   -0.49025  -0.48168  -0.47871  -0.47737  -0.47708
 Alpha  occ. eigenvalues --   -0.47088  -0.46040  -0.44762  -0.44641  -0.44045
 Alpha  occ. eigenvalues --   -0.42423  -0.41277  -0.40951  -0.40470  -0.40125
 Alpha  occ. eigenvalues --   -0.39985  -0.39701  -0.39012  -0.38430  -0.37779
 Alpha  occ. eigenvalues --   -0.36615  -0.36185  -0.35208  -0.32809  -0.32486
 Alpha  occ. eigenvalues --   -0.29313  -0.28704  -0.28680  -0.28248  -0.26699
 Alpha  occ. eigenvalues --   -0.26059
 Alpha virt. eigenvalues --   -0.03086  -0.02289   0.01907   0.01962   0.02636
 Alpha virt. eigenvalues --    0.02718   0.04080   0.04110   0.04475   0.05474
 Alpha virt. eigenvalues --    0.05753   0.05773   0.06193   0.06305   0.06389

 Mulliken charges:
               1
     1  O   -0.226960
     2  O   -0.226964
     3  N    0.249789
     4  N    0.249781
     5  C    0.019400
     6  C    0.019441
     7  C   -0.012471
     8  C   -0.012444
     9  C   -0.287105
    10  C   -0.287071
    11  C    0.128925
    12  C    0.128975
    13  C    0.883915
    14  C    0.883851
    15  C   -1.135593
    16  C   -1.135521
    17  C    0.098452
    18  C    0.098445
    19  C   -0.464658
    20  C   -0.464641
    21  C   -0.595809
    22  C   -0.595822
    23  C   -0.028731
    24  C   -0.028733
    25  H    0.065234
    26  H    0.065245
    27  H    0.128413
    28  H    0.126647
    29  H    0.128411
    30  H    0.126652
    31  H    0.139605
    32  H    0.101676
    33  H    0.139600
    34  H    0.101680
    35  H    0.144435
    36  H    0.144421
    37  H    0.051283
    38  H    0.051285
    39  H    0.075182
    40  H    0.075181
    41  H    0.145366
    42  H    0.145364
    43  H    0.133265
    44  H    0.133265
    45  H    0.259667
    46  H    0.259668
 Sum of Mulliken charges =  -0.00000

 Dipole moment (field-independent basis, Debye):
    X=             -0.0001    Y=             -3.6493    Z=              0.0002  Tot=              3.6493
 Quadrupole moment (field-independent basis, Debye-Ang):
   XX=           -105.8510   YY=           -129.8058   ZZ=           -143.2746
   XY=             -0.0007   XZ=             -2.6869   YZ=             -0.0005

  Exact polarizability:     375.513      -0.002     249.807      25.690      -0.002     191.773
 Approx polarizability:     398.668      -0.002     337.306      34.121      -0.003     267.275

 ******    1 imaginary frequencies (negative Signs) ******

                      1                      2                      3
                      A                      A                      A
 Frequencies --     -4.0739                12.7614                22.1944
 Red. masses --      4.2209                 5.4879                 5.6773
 Frc consts  --      0.0000                 0.0005                 0.0016
 IR Inten    --      0.6351                 0.3178                 0.3421

                      4                      5                      6
                      A                      A                      A
 Frequencies --     25.1449                63.3061                73.3585
 Red. masses --      5.4802                 4.3752                 4.2190
 Frc consts  --      0.0020                 0.0103                 0.0134
 IR Inten    --      1.0524                 0.3529                 0.1689

                      7                      8                      9
                      A                      A                      A
 Frequencies --     86.5751                95.7569               128.5139
 Red. masses --      4.0898                 4.1182                 3.9062
 Frc consts  --      0.0181                 0.0222                 0.0380
 IR Inten    --      0.0057                 0.0346                 4.4621

                     10                     11                     12
                      A                      A                      A
 Frequencies --    141.0176               189.3589               194.1564
 Red. masses --      4.8853                 5.6017                 3.9085
 Frc consts  --      0.0572                 0.1183                 0.0868
 IR Inten    --      2.2722                 0.0105                16.5582

                     13                     14                     15
                      A                      A                      A
 Frequencies --    196.6679               237.0692               255.5789
 Red. masses --      4.2188                 2.3568                 1.2773
 Frc consts  --      0.0961                 0.0780                 0.0492
 IR Inten    --      3.4613                20.6646                51.9675

                     16                     17                     18
                      A                      A                      A
 Frequencies --    256.3891               280.4634               285.9400
 Red. masses --      1.2791                 2.1161                 3.1990
 Frc consts  --      0.0495                 0.0981                 0.1541
 IR Inten    --    117.5803                 2.6709                 8.5510

                     19                     20                     21
                      A                      A                      A
 Frequencies --    314.1235               315.6093               351.1453
 Red. masses --      2.7216                 3.2914                 5.6862
 Frc consts  --      0.1582                 0.1932                 0.4131
 IR Inten    --      2.3681                 4.6009                 4.4454

                     22                     23                     24
                      A                      A                      A
 Frequencies --    352.1891               375.1679               428.7310
 Red. masses --      5.1530                 2.1492                 2.6072
 Frc consts  --      0.3766                 0.1782                 0.2824
 IR Inten    --      0.2758                 0.1737                15.0935

                     25                     26                     27
                      A                      A                      A
 Frequencies --    440.1292               463.2924               473.1375
 Red. masses --      3.9946                 2.4374                 3.3033
 Frc consts  --      0.4559                 0.3082                 0.4357
 IR Inten    --     18.9927                18.0168                 0.0066

                     28                     29                     30
                      A                      A                      A
 Frequencies --    499.1380               512.2195               515.1048
 Red. masses --      3.4846                 4.8346                 3.8044
 Frc consts  --      0.5115                 0.7473                 0.5947
 IR Inten    --      3.6299                 2.1205                11.6074

                     31                     32                     33
                      A                      A                      A
 Frequencies --    541.9321               543.6325               557.9790
 Red. masses --      4.7820                 4.9948                 4.0672
 Frc consts  --      0.8275                 0.8697                 0.7461
 IR Inten    --      0.3316                 2.0578                 2.1861

                     34                     35                     36
                      A                      A                      A
 Frequencies --    558.1539               595.6611               624.5965
 Red. masses --      4.4881                 5.0760                 5.4402
 Frc consts  --      0.8238                 1.0611                 1.2504
 IR Inten    --      1.2805                 0.0492                12.5449

                     37                     38                     39
                      A                      A                      A
 Frequencies --    647.3629               685.6270               726.3512
 Red. masses --      4.9463                 2.4665                 3.6089
 Frc consts  --      1.2213                 0.6831                 1.1218
 IR Inten    --      1.7429                 0.2529                 0.4130

                     40                     41                     42
                      A                      A                      A
 Frequencies --    726.8660               763.5584               763.5796
 Red. masses --      3.6081                 1.3469                 1.3456
 Frc consts  --      1.1232                 0.4627                 0.4623
 IR Inten    --      1.2485                38.6355               104.0208

                     43                     44                     45
                      A                      A                      A
 Frequencies --    789.4025               814.5184               824.0697
 Red. masses --      2.0804                 2.4873                 4.6870
 Frc consts  --      0.7638                 0.9722                 1.8753
 IR Inten    --      5.3835                 0.0168                 6.1005

                     46                     47                     48
                      A                      A                      A
 Frequencies --    840.1856               857.1841               860.3773
 Red. masses --      4.9212                 3.4335                 1.6159
 Frc consts  --      2.0468                 1.4864                 0.7048
 IR Inten    --     12.1623                20.0852                 3.3209

                     49                     50                     51
                      A                      A                      A
 Frequencies --    861.6077               863.9322               889.2651
 Red. masses --      1.5055                 2.3644                 2.2559
 Frc consts  --      0.6585                 1.0398                 1.0511
 IR Inten    --      2.3140                 2.8058                 8.2927

                     52                     53                     54
                      A                      A                      A
 Frequencies --    901.0249               921.1051               966.5596
 Red. masses --      1.6414                 2.6981                 1.3436
 Frc consts  --      0.7851                 1.3487                 0.7396
 IR Inten    --     10.7192                 0.9796                 0.3205

                     55                     56                     57
                      A                      A                      A
 Frequencies --    967.3540               994.3902               998.8781
 Red. masses --      1.3397                 1.5810                 1.3668
 Frc consts  --      0.7387                 0.9211                 0.8035
 IR Inten    --      1.2820                 0.3179                 0.7933

                     58                     59                     60
                      A                      A                      A
 Frequencies --    999.7604              1009.5509              1011.9636
 Red. masses --      1.6988                 1.4771                 1.5267
 Frc consts  --      1.0004                 0.8870                 0.9212
 IR Inten    --      0.2717                 1.2879                 5.3470

                     61                     62                     63
                      A                      A                      A
 Frequencies --   1024.0082              1038.0705              1061.3396
 Red. masses --      2.1917                 1.9294                 1.6347
 Frc consts  --      1.3540                 1.2250                 1.0849
 IR Inten    --     19.7401                 4.0430                 0.1568

                     64                     65                     66
                      A                      A                      A
 Frequencies --   1062.5443              1063.1041              1072.5808
 Red. masses --      1.8842                 1.8413                 2.3428
 Frc consts  --      1.2534                 1.2261                 1.5880
 IR Inten    --     15.5895                 0.1745                19.8540

                     67                     68                     69
                      A                      A                      A
 Frequencies --   1100.2019              1103.9242              1117.9893
 Red. masses --      1.9726                 1.8831                 1.0284
 Frc consts  --      1.4068                 1.3521                 0.7573
 IR Inten    --     62.3919                41.0495                 0.0050

                     70                     71                     72
                      A                      A                      A
 Frequencies --   1158.3334              1160.7966              1161.3245
 Red. masses --      1.9918                 1.0970                 1.2351
 Frc consts  --      1.5745                 0.8709                 0.9815
 IR Inten    --      0.5199                14.6832                12.2189

                     73                     74                     75
                      A                      A                      A
 Frequencies --   1164.0714              1164.4860              1168.3785
 Red. masses --      1.4415                 1.1689                 1.9865
 Frc consts  --      1.1509                 0.9339                 1.5978
 IR Inten    --     49.2313                39.5146                 3.7688

                     76                     77                     78
                      A                      A                      A
 Frequencies --   1184.6765              1230.9561              1231.9386
 Red. masses --      1.5238                 2.0402                 2.0371
 Frc consts  --      1.2600                 1.8215                 1.8215
 IR Inten    --     33.3344                20.2713                13.6971

                     79                     80                     81
                      A                      A                      A
 Frequencies --   1264.0260              1279.3260              1288.8390
 Red. masses --      1.3006                 1.7927                 2.8911
 Frc consts  --      1.2243                 1.7287                 2.8295
 IR Inten    --      3.7906                63.9394                76.3893

                     82                     83                     84
                      A                      A                      A
 Frequencies --   1290.9567              1313.3042              1319.1476
 Red. masses --      1.4772                 1.5184                 1.6647
 Frc consts  --      1.4505                 1.5430                 1.7068
 IR Inten    --     18.3007                38.4676                70.8464

                     85                     86                     87
                      A                      A                      A
 Frequencies --   1320.2302              1320.2890              1338.3533
 Red. masses --      1.4279                 1.8005                 1.3242
 Frc consts  --      1.4664                 1.8492                 1.3974
 IR Inten    --     88.0988                 3.1903                 1.0622

                     88                     89                     90
                      A                      A                      A
 Frequencies --   1345.1844              1347.6576              1359.8537
 Red. masses --      2.8956                 4.2330                 1.6025
 Frc consts  --      3.0871                 4.5296                 1.7459
 IR Inten    --     11.6243                11.8037                 2.6500

                     91                     92                     93
                      A                      A                      A
 Frequencies --   1367.0251              1375.4382              1379.5087
 Red. masses --      1.6851                 1.4960                 1.5358
 Frc consts  --      1.8554                 1.6675                 1.7220
 IR Inten    --     15.0564                 9.5209                 3.3346

                     94                     95                     96
                      A                      A                      A
 Frequencies --   1382.0472              1408.4875              1421.8626
 Red. masses --      1.5889                 1.5558                 1.5936
 Frc consts  --      1.7881                 1.8185                 1.8983
 IR Inten    --      0.1481                22.0208                41.4906

                     97                     98                     99
                      A                      A                      A
 Frequencies --   1453.4889              1457.7454              1466.8460
 Red. masses --      1.0968                 1.1099                 1.0838
 Frc consts  --      1.3653                 1.3896                 1.3739
 IR Inten    --      0.5548                13.9792                 3.6770

                    100                    101                    102
                      A                      A                      A
 Frequencies --   1478.8497              1493.2045              1493.2788
 Red. masses --      1.1127                 2.9656                 2.9734
 Frc consts  --      1.4338                 3.8958                 3.9065
 IR Inten    --     16.7310                79.8839                57.5766

                    103                    104                    105
                      A                      A                      A
 Frequencies --   1533.2529              1533.3158              1656.5122
 Red. masses --      3.0026                 3.0061                 7.0769
 Frc consts  --      4.1589                 4.1640                11.4415
 IR Inten    --     29.0919                32.3553                27.2668

                    106                    107                    108
                      A                      A                      A
 Frequencies --   1656.6356              1673.4623              1673.4814
 Red. masses --      7.0570                 6.9154                 6.9149
 Frc consts  --     11.4110                11.4104                11.4098
 IR Inten    --     24.3568                93.7461                 8.0038

                    109                    110                    111
                      A                      A                      A
 Frequencies --   1743.0563              1743.1648              2972.4856
 Red. masses --      9.2641                 9.1915                 1.0813
 Frc consts  --     16.5834                16.4555                 5.6290
 IR Inten    --    266.6402                82.0557                67.8074

                    112                    113                    114
                      A                      A                      A
 Frequencies --   2980.9528              3054.1987              3055.5456
 Red. masses --      1.0836                 1.0594                 1.0638
 Frc consts  --      5.6731                 5.8224                 5.8520
 IR Inten    --     50.6020                17.1069                39.3954

                    115                    116                    117
                      A                      A                      A
 Frequencies --   3060.5476              3061.0469              3073.1603
 Red. masses --      1.0620                 1.0608                 1.0864
 Frc consts  --      5.8612                 5.8565                 6.0452
 IR Inten    --      0.5065                72.9891                44.3422

                    118                    119                    120
                      A                      A                      A
 Frequencies --   3073.6069              3096.1264              3100.8677
 Red. masses --      1.0864                 1.0980                 1.1034
 Frc consts  --      6.0472                 6.2017                 6.2511
 IR Inten    --     13.8621                55.8742                44.6700

                    121                    122                    123
                      A                      A                      A
 Frequencies --   3108.2640              3112.3119              3182.5409
 Red. masses --      1.1042                 1.1041                 1.0891
 Frc consts  --      6.2854                 6.3013                 6.4994
 IR Inten    --      2.3198               108.8538                10.7524

                    124                    125                    126
                      A                      A                      A
 Frequencies --   3182.5723              3211.1883              3211.1913
 Red. masses --      1.0891                 1.0877                 1.0877
 Frc consts  --      6.4995                 6.6086                 6.6086
 IR Inten    --     24.8259                 4.2197                 6.9295

                    127                    128                    129
                      A                      A                      A
 Frequencies --   3221.9122              3221.9192              3233.6163
 Red. masses --      1.0919                 1.0919                 1.0977
 Frc consts  --      6.6781                 6.6781                 6.7623
 IR Inten    --     11.0815                 1.5222                34.4817

                    130                    131                    132
                      A                      A                      A
 Frequencies --   3233.6551              3909.3868              3909.4723
 Red. masses --      1.0977                 1.0663                 1.0663
 Frc consts  --      6.7625                 9.6013                 9.6018
 IR Inten    --      3.6130                58.7985               126.3915

 - Thermochemistry -
 -------------------
 Temperature   298.150 Kelvin.  Pressure   1.00000 Atm.
 Atom     1 has atomic number  8 and mass  15.99491

 Molecular mass:   322.16813 amu.
 Principal axes and moments of inertia in atomic units:
                           1         2         3
     Eigenvalues --  3983.92645********************
           X            1.00000  -0.00000   0.00252
           Y            0.00000   1.00000   0.00000
           Z           -0.00252  -0.00000   1.00000
 This molecule is an asymmetric top.
 Rotational symmetry number  1.
 Warning -- assumption of classical behavior for rotation
           may cause significant error
 Rotational temperatures (Kelvin)      0.02174     0.00438     0.00393
 Rotational constants (GHZ):           0.45301     0.09125     0.08188
    1 imaginary frequencies ignored.
 Zero-point vibrational energy    1007278.4 (Joules/Mol)
                                  240.74531 (Kcal/Mol)
 Warning -- explicit consideration of  34 degrees of freedom as
           vibrations may cause significant error
 Vibrational temperatures:     18.36    31.93    36.18    91.08   105.55
          (Kelvin)            124.56   137.77   184.90   202.89   272.45
                              279.35   282.96   341.09   367.72   368.89
                              403.52   411.40   451.95   454.09   505.22
                              506.72   539.78   616.85   633.25   666.57
                              680.74   718.15   736.97   741.12   779.72
                              782.17   802.81   803.06   857.02   898.66
                              931.41   986.46  1045.06  1045.80  1098.59
                             1098.62  1135.77  1171.91  1185.65  1208.84
                             1233.30  1237.89  1239.66  1243.01  1279.45
                             1296.37  1325.26  1390.66  1391.81  1430.71
                             1437.16  1438.43  1452.52  1455.99  1473.32
                             1493.55  1527.03  1528.76  1529.57  1543.20
                             1582.95  1588.30  1608.54  1666.58  1670.13
                             1670.89  1674.84  1675.44  1681.04  1704.49
                             1771.07  1772.48  1818.65  1840.66  1854.35
                             1857.40  1889.55  1897.96  1899.52  1899.60
                             1925.59  1935.42  1938.98  1956.53  1966.84
                             1978.95  1984.81  1988.46  2026.50  2045.74
                             2091.25  2097.37  2110.46  2127.73  2148.39
                             2148.50  2206.01  2206.10  2383.35  2383.53
                             2407.74  2407.77  2507.87  2508.03  4276.74
                             4288.93  4394.31  4396.25  4403.45  4404.16
                             4421.59  4422.23  4454.64  4461.46  4472.10
                             4477.92  4578.97  4579.01  4620.18  4620.19
                             4635.61  4635.62  4652.45  4652.51  5624.74
                             5624.86

 Zero-point correction=                           0.383652 (Hartree/Particle)
 Thermal correction to Energy=                    0.404563
 Thermal correction to Enthalpy=                  0.405507
 Thermal correction to Gibbs Free Energy=         0.331660
 Sum of electronic and zero-point Energies=          -1033.943285
 Sum of electronic and thermal Energies=             -1033.922375
 Sum of electronic and thermal Enthalpies=           -1033.921431
 Sum of electronic and thermal Free Energies=        -1033.995277

                     E (Thermal)             CV                S
                      KCal/Mol        Cal/Mol-Kelvin    Cal/Mol-Kelvin
 Total                  253.867             83.119            155.424
 Electronic               0.000              0.000              0.000
 Translational            0.889              2.981             43.205
 Rotational               0.889              2.981             35.806
 Vibrational            252.089             77.158             76.413
 Vibration     1          0.593              1.987              7.527
 Vibration     2          0.593              1.985              6.427
 Vibration     3          0.593              1.985              6.180
 Vibration     4          0.597              1.972              4.351
 Vibration     5          0.599              1.967              4.061
 Vibration     6          0.601              1.959              3.736
 Vibration     7          0.603              1.952              3.539
 Vibration     8          0.611              1.925              2.968
 Vibration     9          0.615              1.912              2.790
 Vibration    10          0.633              1.855              2.234
 Vibration    11          0.635              1.848              2.188
 Vibration    12          0.636              1.845              2.164
 Vibration    13          0.656              1.784              1.825
 Vibration    14          0.666              1.753              1.692
 Vibration    15          0.666              1.752              1.686
 Vibration    16          0.680              1.710              1.531
 Vibration    17          0.684              1.700              1.498
 Vibration    18          0.702              1.647              1.341
 Vibration    19          0.703              1.644              1.333
 Vibration    20          0.728              1.573              1.161
 Vibration    21          0.729              1.571              1.156
 Vibration    22          0.746              1.523              1.059
 Vibration    23          0.790              1.408              0.863
 Vibration    24          0.800              1.383              0.826
 Vibration    25          0.821              1.331              0.757
 Vibration    26          0.830              1.310              0.729
 Vibration    27          0.855              1.252              0.660
 Vibration    28          0.867              1.223              0.628
 Vibration    29          0.870              1.217              0.621
 Vibration    30          0.897              1.157              0.561
 Vibration    31          0.899              1.154              0.558
 Vibration    32          0.914              1.122              0.528
 Vibration    33          0.914              1.122              0.528
 Vibration    34          0.953              1.041              0.457

 Optimization completed.
    -- Stationary point found.
 Normal termination of Gaussian 16 at Mon Dec  4 22:37:21 2023.
