 Gaussian 16, Revision C.01,
 Gaussian 16:  EM64L-G16RevC.01  3-Jul-2019

 ------------------------------
 #p MN15/6-311++G(d,p) opt freq
 ------------------------------

 ---------------
 name file: 3988
 ---------------
 Symbolic Z-matrix:
 Charge =  0 Multiplicity = 1

 SCF Done:  E(RMN15) =  -962.992106257     A.U. after   16 cycles
 SCF Done:  E(RMN15) =  -963.001475628     A.U. after   14 cycles
 SCF Done:  E(RMN15) =  -963.002217442     A.U. after   13 cycles
 SCF Done:  E(RMN15) =  -963.001836925     A.U. after   15 cycles
 SCF Done:  E(RMN15) =  -963.002669670     A.U. after   14 cycles
 SCF Done:  E(RMN15) =  -963.002549724     A.U. after   14 cycles
 SCF Done:  E(RMN15) =  -963.002825128     A.U. after   13 cycles
 SCF Done:  E(RMN15) =  -963.002855106     A.U. after   12 cycles
 SCF Done:  E(RMN15) =  -963.002865910     A.U. after   13 cycles
 SCF Done:  E(RMN15) =  -963.002868759     A.U. after   12 cycles
 SCF Done:  E(RMN15) =  -963.003001190     A.U. after   10 cycles
 SCF Done:  E(RMN15) =  -963.003001467     A.U. after   10 cycles
 SCF Done:  E(RMN15) =  -963.003001656     A.U. after    9 cycles
 SCF Done:  E(RMN15) =  -963.003001749     A.U. after    9 cycles
 SCF Done:  E(RMN15) =  -963.003001792     A.U. after    9 cycles
 SCF Done:  E(RMN15) =  -963.003001913     A.U. after    9 cycles
 SCF Done:  E(RMN15) =  -963.003002105     A.U. after    9 cycles
 SCF Done:  E(RMN15) =  -963.003002340     A.U. after    9 cycles
 SCF Done:  E(RMN15) =  -963.003002513     A.U. after    9 cycles
 Optimization completed.
    -- Stationary point found.
 Normal termination of Gaussian 16 at Tue Dec  5 05:46:14 2023.

 ----------------------------------------------------------------------
 #P Geom=AllCheck Guess=TCheck SCRF=Check GenChk RMN15/6-311++G(d,p) Fr
 eq
 ----------------------------------------------------------------------

 Structure from the checkpoint file:  "/home/exlonk/in_progress/3988.chk"
 ---------------
 name file: 3988
 ---------------
 Charge =  0 Multiplicity = 1

                         Standard orientation:
 ---------------------------------------------------------------------
 Center     Atomic      Atomic             Coordinates (Angstroms)
 Number     Number       Type             X           Y           Z
 ---------------------------------------------------------------------
      1          7           0        0.656238    0.848236   -0.778817
      2          7           0       -0.129623    2.636153    0.354170
      3          7           0       -1.304506   -0.573512   -0.680112
      4          7           0       -3.342608   -1.619766   -0.423425
      5          7           0       -3.128364    0.490067    0.494961
      6          7           0       -2.984843    2.609024    1.418495
      7          7           0        3.212424    3.197234   -0.638986
      8          6           0        1.597668   -0.042639   -1.453345
      9          6           0       -0.631762    0.547764   -0.427483
     10          6           0       -1.093456    1.669092    0.260757
     11          6           0        0.899826    2.113857   -0.268371
     12          6           0        2.426783   -0.839535   -0.474185
     13          6           0       -2.424914    1.590505    0.732027
     14          6           0       -2.558522   -0.528076   -0.197818
     15          6           0        3.745067   -0.478154   -0.200281
     16          6           0        1.856753   -1.930266    0.186984
     17          6           0        4.491285   -1.202744    0.726991
     18          6           0        2.601925   -2.651863    1.113194
     19          6           0       -4.632241   -1.746212    0.231047
     20          6           0       -2.737658   -2.806717   -0.999441
     21          6           0        3.920792   -2.289025    1.383480
     22          6           0        2.168828    2.736517   -0.456169
     23          1           0        2.236107    0.564814   -2.099067
     24          1           0        0.994588   -0.701885   -2.081146
     25          1           0        4.185282    0.374735   -0.708118
     26          1           0        0.826692   -2.199810   -0.029613
     27          1           0        5.515630   -0.916791    0.935754
     28          1           0        2.157177   -3.498968    1.622937
     29          1           0       -4.535308   -2.063173    1.276520
     30          1           0       -5.154368   -0.792395    0.213638
     31          1           0       -5.224448   -2.487902   -0.306664
     32          1           0       -2.045893   -3.295069   -0.302062
     33          1           0       -2.178352   -2.549763   -1.898340
     34          1           0       -3.530027   -3.508874   -1.259514
     35          1           0       -2.449648    3.442036    1.611580
     36          1           0       -3.932275    2.519108    1.751471
     37          1           0        4.501586   -2.853140    2.104295
 ---------------------------------------------------------------------

 SCF Done:  E(RMN15) =  -963.003002513     A.U. after    1 cycles

 The electronic state is 1-A.
 Alpha  occ. eigenvalues --  -14.16523 -14.12004 -14.11705 -14.10922 -14.10682
 Alpha  occ. eigenvalues --  -14.08239 -14.08137 -10.15195 -10.14584 -10.14482
 Alpha  occ. eigenvalues --  -10.12359 -10.10300 -10.09195 -10.07075 -10.06895
 Alpha  occ. eigenvalues --  -10.06774 -10.06061 -10.04984 -10.04979 -10.04918
 Alpha  occ. eigenvalues --  -10.04854 -10.04827  -1.10421  -1.05592  -1.00903
 Alpha  occ. eigenvalues --   -0.97573  -0.96327  -0.95748  -0.91762  -0.91157
 Alpha  occ. eigenvalues --   -0.83440  -0.82475  -0.79811  -0.77465  -0.76035
 Alpha  occ. eigenvalues --   -0.75779  -0.72612  -0.67181  -0.66480  -0.65742
 Alpha  occ. eigenvalues --   -0.64842  -0.62347  -0.59300  -0.58011  -0.57315
 Alpha  occ. eigenvalues --   -0.56967  -0.54617  -0.53482  -0.53147  -0.52395
 Alpha  occ. eigenvalues --   -0.51504  -0.50198  -0.49405  -0.48434  -0.47603
 Alpha  occ. eigenvalues --   -0.47047  -0.45850  -0.44910  -0.44700  -0.44370
 Alpha  occ. eigenvalues --   -0.42789  -0.42707  -0.42343  -0.42095  -0.40587
 Alpha  occ. eigenvalues --   -0.40262  -0.39441  -0.38767  -0.38188  -0.35294
 Alpha  occ. eigenvalues --   -0.34600  -0.31848  -0.30511  -0.29717  -0.29432
 Alpha  occ. eigenvalues --   -0.29086  -0.24351
 Alpha virt. eigenvalues --   -0.03506  -0.00215   0.00424   0.02213   0.02654
 Alpha virt. eigenvalues --    0.03526   0.03589   0.03966   0.04257   0.04635
 Alpha virt. eigenvalues --    0.05136   0.05998   0.06403   0.06617   0.06981

 Mulliken charges:
               1
     1  N    0.263091
     2  N   -0.087727
     3  N   -0.220908
     4  N    0.022907
     5  N   -0.213026
     6  N   -0.388618
     7  N   -0.267207
     8  C   -0.382049
     9  C    0.022825
    10  C    0.139237
    11  C    0.614330
    12  C    0.962489
    13  C   -0.090082
    14  C   -0.693244
    15  C   -0.200627
    16  C   -0.279886
    17  C   -0.447057
    18  C   -0.311343
    19  C   -0.189013
    20  C   -0.160452
    21  C   -0.028586
    22  C   -0.318258
    23  H    0.183547
    24  H    0.164804
    25  H    0.088650
    26  H    0.014560
    27  H    0.143837
    28  H    0.141623
    29  H    0.147614
    30  H    0.161180
    31  H    0.115742
    32  H    0.129296
    33  H    0.144583
    34  H    0.112491
    35  H    0.291826
    36  H    0.282673
    37  H    0.130776
 Sum of Mulliken charges =  -0.00000

 Dipole moment (field-independent basis, Debye):
    X=             -3.6100    Y=             -3.2767    Z=              0.6811  Tot=              4.9227
 Quadrupole moment (field-independent basis, Debye-Ang):
   XX=           -120.8061   YY=           -129.6879   ZZ=           -125.1364
   XY=            -11.4460   XZ=             -1.9531   YZ=              2.8202

  Exact polarizability:     304.029      32.781     236.905     -12.164      -0.074     156.970
 Approx polarizability:     374.525      51.914     304.622     -21.753       0.107     224.041

                      1                      2                      3
                      A                      A                      A
 Frequencies --     15.1846                31.8594                36.3337
 Red. masses --      4.5052                 2.9091                 1.4849
 Frc consts  --      0.0006                 0.0017                 0.0012
 IR Inten    --      0.1950                 0.4540                 0.2315

                      4                      5                      6
                      A                      A                      A
 Frequencies --     47.2075                63.9703                84.3915
 Red. masses --      3.7071                 5.9687                 2.7072
 Frc consts  --      0.0049                 0.0144                 0.0114
 IR Inten    --      0.0140                 0.5924                 0.6953

                      7                      8                      9
                      A                      A                      A
 Frequencies --     97.0011               114.1817               120.2820
 Red. masses --      1.3661                 6.0886                 6.3200
 Frc consts  --      0.0076                 0.0468                 0.0539
 IR Inten    --      1.4706                 1.2093                 4.5693

                     10                     11                     12
                      A                      A                      A
 Frequencies --    126.5459               148.5011               186.3562
 Red. masses --      4.1160                 3.3811                 5.5051
 Frc consts  --      0.0388                 0.0439                 0.1126
 IR Inten    --      8.7675                 0.4951                 3.0203

                     13                     14                     15
                      A                      A                      A
 Frequencies --    218.3242               226.0742               239.5047
 Red. masses --      2.2510                 2.4940                 2.3891
 Frc consts  --      0.0632                 0.0751                 0.0807
 IR Inten    --     85.7088                17.0854                83.2113

                     16                     17                     18
                      A                      A                      A
 Frequencies --    251.9179               278.7501               298.3468
 Red. masses --      3.8863                 4.0351                 5.4820
 Frc consts  --      0.1453                 0.1847                 0.2875
 IR Inten    --     16.1810                 6.8984                 4.0250

                     19                     20                     21
                      A                      A                      A
 Frequencies --    343.3710               350.8105               376.4470
 Red. masses --      3.5040                 2.2769                 6.0829
 Frc consts  --      0.2434                 0.1651                 0.5079
 IR Inten    --      0.4937                 1.1790                 0.5379

                     22                     23                     24
                      A                      A                      A
 Frequencies --    408.3428               422.4411               458.8874
 Red. masses --      2.9076                 4.3919                 3.8365
 Frc consts  --      0.2857                 0.4618                 0.4760
 IR Inten    --      0.0496                 5.7117                 1.4920

                     25                     26                     27
                      A                      A                      A
 Frequencies --    486.6125               508.4590               524.5755
 Red. masses --      3.9549                 4.2223                 6.1560
 Frc consts  --      0.5518                 0.6431                 0.9981
 IR Inten    --      1.7481                 8.3314                 1.9205

                     28                     29                     30
                      A                      A                      A
 Frequencies --    547.3038               574.3765               582.6212
 Red. masses --      1.2714                 6.2776                 5.4397
 Frc consts  --      0.2244                 1.2202                 1.0879
 IR Inten    --      1.2515                12.1598                 2.1667

                     31                     32                     33
                      A                      A                      A
 Frequencies --    596.5660               615.6830               662.9639
 Red. masses --      5.4316                 6.1913                 4.5846
 Frc consts  --      1.1389                 1.3828                 1.1872
 IR Inten    --     14.3070                 0.0929                10.8276

                     34                     35                     36
                      A                      A                      A
 Frequencies --    687.0292               692.8019               706.8936
 Red. masses --     10.5788                 4.8134                 2.8614
 Frc consts  --      2.9420                 1.3612                 0.8424
 IR Inten    --      3.1559                10.9347                17.2414

                     37                     38                     39
                      A                      A                      A
 Frequencies --    717.8852               755.2984               759.7964
 Red. masses --      2.9679                 8.9105                 2.5743
 Frc consts  --      0.9012                 2.9949                 0.8756
 IR Inten    --     38.4146                 6.5339                30.3343

                     40                     41                     42
                      A                      A                      A
 Frequencies --    811.8156               826.0571               831.6774
 Red. masses --     10.3439                 4.7130                 3.7418
 Frc consts  --      4.0165                 1.8948                 1.5249
 IR Inten    --     18.6636                 6.3434                 7.8146

                     43                     44                     45
                      A                      A                      A
 Frequencies --    858.8664               864.7934               912.8071
 Red. masses --      6.4468                 1.2494                 3.6047
 Frc consts  --      2.8019                 0.5505                 1.7696
 IR Inten    --      0.5243                 0.1760                 5.9224

                     46                     47                     48
                      A                      A                      A
 Frequencies --    948.4071               970.0508              1000.9352
 Red. masses --      1.5093                 2.3243                 1.3734
 Frc consts  --      0.7998                 1.2887                 0.8107
 IR Inten    --      4.3334                 8.5216                 0.0866

                     49                     50                     51
                      A                      A                      A
 Frequencies --   1004.8623              1018.6530              1019.0115
 Red. masses --      5.6296                 1.3937                 1.8931
 Frc consts  --      3.3492                 0.8521                 1.1582
 IR Inten    --      0.3420                 0.7136                 5.6339

                     52                     53                     54
                      A                      A                      A
 Frequencies --   1053.4010              1076.0545              1102.8559
 Red. masses --      2.1369                 1.3824                 1.6125
 Frc consts  --      1.3971                 0.9431                 1.1555
 IR Inten    --      3.5906                15.9188                 6.2073

                     55                     56                     57
                      A                      A                      A
 Frequencies --   1104.6682              1113.5670              1121.4563
 Red. masses --      2.2274                 1.2421                 2.7583
 Frc consts  --      1.6014                 0.9075                 2.0439
 IR Inten    --     18.6258                 1.6873                 6.3155

                     58                     59                     60
                      A                      A                      A
 Frequencies --   1148.0048              1165.0477              1191.0187
 Red. masses --      1.3731                 1.1093                 1.1128
 Frc consts  --      1.0662                 0.8872                 0.9300
 IR Inten    --     51.5874                 0.2655                 2.4016

                     61                     62                     63
                      A                      A                      A
 Frequencies --   1228.4285              1237.6279              1257.6941
 Red. masses --      2.3675                 2.1259                 3.2922
 Frc consts  --      2.1050                 1.9186                 3.0682
 IR Inten    --      3.1963                 1.7882                30.3439

                     64                     65                     66
                      A                      A                      A
 Frequencies --   1291.2239              1328.8905              1341.4631
 Red. masses --      3.6626                 4.6383                 3.9240
 Frc consts  --      3.5979                 4.8260                 4.1604
 IR Inten    --     12.3728                17.4278                22.4242

                     67                     68                     69
                      A                      A                      A
 Frequencies --   1348.0048              1363.0002              1374.3283
 Red. masses --      1.5377                 5.8454                 1.7718
 Frc consts  --      1.6463                 6.3982                 1.9717
 IR Inten    --      7.0077                27.4113                76.9027

                     70                     71                     72
                      A                      A                      A
 Frequencies --   1389.9472              1417.4188              1427.4656
 Red. masses --      5.9074                 2.9772                 1.1927
 Frc consts  --      6.7242                 3.5242                 1.4319
 IR Inten    --     86.2727                37.2905                 1.8847

                     73                     74                     75
                      A                      A                      A
 Frequencies --   1439.7000              1455.5712              1464.4198
 Red. masses --      1.5323                 1.2597                 1.0527
 Frc consts  --      1.8712                 1.5725                 1.3302
 IR Inten    --    188.7186                17.5757                 8.6353

                     76                     77                     78
                      A                      A                      A
 Frequencies --   1470.5388              1485.2036              1487.1923
 Red. masses --      1.1183                 2.0763                 1.3128
 Frc consts  --      1.4248                 2.6984                 1.7107
 IR Inten    --     72.3140                11.5231                 6.6364

                     79                     80                     81
                      A                      A                      A
 Frequencies --   1493.3105              1500.3382              1523.5852
 Red. masses --      1.4620                 1.5369                 2.3111
 Frc consts  --      1.9208                 2.0383                 3.1609
 IR Inten    --      7.7315                19.2681                 5.9067

                     82                     83                     84
                      A                      A                      A
 Frequencies --   1529.0694              1540.5691              1582.6594
 Red. masses --      2.4864                10.7694                 3.3368
 Frc consts  --      3.4251                15.0592                 4.9244
 IR Inten    --      9.5640               105.1720               869.4102

                     85                     86                     87
                      A                      A                      A
 Frequencies --   1605.3454              1651.9758              1662.6237
 Red. masses --      2.5979                 6.2630                 5.3790
 Frc consts  --      3.9447                10.0702                 8.7606
 IR Inten    --     30.3325                 2.8803               888.7938

                     88                     89                     90
                      A                      A                      A
 Frequencies --   1670.4350              1684.5281              2370.8923
 Red. masses --      6.1719                 9.6809                12.6668
 Frc consts  --     10.1468                16.1853                41.9510
 IR Inten    --      4.8060               624.0500               103.0397

                     91                     92                     93
                      A                      A                      A
 Frequencies --   3034.9287              3040.9042              3097.4196
 Red. masses --      1.0486                 1.0518                 1.0599
 Frc consts  --      5.6905                 5.7302                 5.9915
 IR Inten    --     46.5002               107.2747                15.3009

                     94                     95                     96
                      A                      A                      A
 Frequencies --   3127.5024              3130.2839              3152.0197
 Red. masses --      1.0868                 1.0856                 1.1060
 Frc consts  --      6.2630                 6.2674                 6.4741
 IR Inten    --      0.9431                73.1364                 1.5532

                     97                     98                     99
                      A                      A                      A
 Frequencies --   3172.4298              3187.7896              3190.7336
 Red. masses --      1.1038                 1.1004                 1.0891
 Frc consts  --      6.5455                 6.5886                 6.5329
 IR Inten    --     15.5236                 7.1048                 0.5553

                    100                    101                    102
                      A                      A                      A
 Frequencies --   3197.8901              3207.4783              3218.9715
 Red. masses --      1.0883                 1.0897                 1.0942
 Frc consts  --      6.5572                 6.6050                 6.6798
 IR Inten    --      1.7560                 2.9727                18.3443

                    103                    104                    105
                      A                      A                      A
 Frequencies --   3229.6752              3635.3276              3774.2220
 Red. masses --      1.0986                 1.0445                 1.1068
 Frc consts  --      6.7514                 8.1327                 9.2893
 IR Inten    --     20.0741               122.2445                66.9733

 - Thermochemistry -
 -------------------
 Temperature   298.150 Kelvin.  Pressure   1.00000 Atm.
 Atom     1 has atomic number  7 and mass  14.00307

 Molecular mass:   293.13889 amu.
 Principal axes and moments of inertia in atomic units:
                           1         2         3
     Eigenvalues --  4384.004608489.45689**********
           X            0.99998   0.00703   0.00075
           Y           -0.00703   0.99995   0.00655
           Z           -0.00070  -0.00656   0.99998
 This molecule is an asymmetric top.
 Rotational symmetry number  1.
 Warning -- assumption of classical behavior for rotation
           may cause significant error
 Rotational temperatures (Kelvin)      0.01976     0.01020     0.00750
 Rotational constants (GHZ):           0.41166     0.21259     0.15629
 Zero-point vibrational energy     768773.8 (Joules/Mol)
                                  183.74134 (Kcal/Mol)
 Warning -- explicit consideration of  32 degrees of freedom as
           vibrations may cause significant error
 Vibrational temperatures:     21.85    45.84    52.28    67.92    92.04
          (Kelvin)            121.42   139.56   164.28   173.06   182.07
                              213.66   268.13   314.12   325.27   344.59
                              362.45   401.06   429.25   494.03   504.74
                              541.62   587.51   607.80   660.24   700.13
                              731.56   754.75   787.45   826.40   838.26
                              858.33   885.83   953.86   988.48   996.79
                             1017.06  1032.88  1086.71  1093.18  1168.02
                             1188.51  1196.60  1235.72  1244.24  1313.33
                             1364.55  1395.69  1440.12  1445.77  1465.61
                             1466.13  1515.61  1548.20  1586.76  1589.37
                             1602.17  1613.53  1651.72  1676.24  1713.61
                             1767.43  1780.67  1809.54  1857.78  1911.98
                             1930.07  1939.48  1961.05  1977.35  1999.82
                             2039.35  2053.80  2071.41  2094.24  2106.97
                             2115.78  2136.88  2139.74  2148.54  2158.65
                             2192.10  2199.99  2216.54  2277.09  2309.73
                             2376.82  2392.14  2403.38  2423.66  3411.19
                             4366.59  4375.18  4456.50  4499.78  4503.78
                             4535.05  4564.42  4586.52  4590.75  4601.05
                             4614.85  4631.38  4646.78  5230.43  5430.26

 Zero-point correction=                           0.292810 (Hartree/Particle)
 Thermal correction to Energy=                    0.312869
 Thermal correction to Enthalpy=                  0.313814
 Thermal correction to Gibbs Free Energy=         0.241660
 Sum of electronic and zero-point Energies=           -962.710192
 Sum of electronic and thermal Energies=              -962.690133
 Sum of electronic and thermal Enthalpies=            -962.689189
 Sum of electronic and thermal Free Energies=         -962.761342

                     E (Thermal)             CV                S
                      KCal/Mol        Cal/Mol-Kelvin    Cal/Mol-Kelvin
 Total                  196.328             74.365            151.859
 Electronic               0.000              0.000              0.000
 Translational            0.889              2.981             42.924
 Rotational               0.889              2.981             34.418
 Vibrational            194.551             68.403             74.517
 Vibration     1          0.593              1.986              7.181
 Vibration     2          0.594              1.983              5.710
 Vibration     3          0.594              1.982              5.450
 Vibration     4          0.595              1.979              4.931
 Vibration     5          0.597              1.971              4.331
 Vibration     6          0.601              1.960              3.786
 Vibration     7          0.603              1.951              3.514
 Vibration     8          0.607              1.938              3.197
 Vibration     9          0.609              1.932              3.096
 Vibration    10          0.611              1.927              2.998
 Vibration    11          0.618              1.904              2.691
 Vibration    12          0.632              1.859              2.264
 Vibration    13          0.646              1.813              1.973
 Vibration    14          0.650              1.801              1.910
 Vibration    15          0.657              1.780              1.807
 Vibration    16          0.664              1.760              1.717
 Vibration    17          0.679              1.713              1.541
 Vibration    18          0.691              1.677              1.426
 Vibration    19          0.722              1.589              1.196
 Vibration    20          0.728              1.574              1.163
 Vibration    21          0.747              1.520              1.053
 Vibration    22          0.773              1.452              0.932
 Vibration    23          0.785              1.421              0.884
 Vibration    24          0.817              1.341              0.769
 Vibration    25          0.843              1.280              0.692
 Vibration    26          0.864              1.231              0.637
 Vibration    27          0.880              1.196              0.599
 Vibration    28          0.903              1.146              0.550
 Vibration    29          0.931              1.087              0.496
 Vibration    30          0.939              1.069              0.481
 Vibration    31          0.954              1.039              0.456
 Vibration    32          0.975              0.999              0.423

                           ! Non-Optimized Parameters !
 Normal termination of Gaussian 16 at Tue Dec  5 06:19:01 2023.
