 Gaussian 16, Revision C.01,
 Gaussian 16:  EM64L-G16RevC.01  3-Jul-2019

 ------------------------------
 #p MN15/6-311++G(d,p) opt freq
 ------------------------------

 ---------------
 name file: 4010
 ---------------
 Symbolic Z-matrix:
 Charge =  0 Multiplicity = 1

 SCF Done:  E(RMN15) =  -1242.62428627     A.U. after   16 cycles
 SCF Done:  E(RMN15) =  -1242.63473175     A.U. after   16 cycles
 SCF Done:  E(RMN15) =  -1242.63615607     A.U. after   16 cycles
 SCF Done:  E(RMN15) =  -1242.63683600     A.U. after   17 cycles
 SCF Done:  E(RMN15) =  -1242.63720052     A.U. after   16 cycles
 SCF Done:  E(RMN15) =  -1242.63744418     A.U. after   16 cycles
 SCF Done:  E(RMN15) =  -1242.63749635     A.U. after   12 cycles
 SCF Done:  E(RMN15) =  -1242.63752051     A.U. after   12 cycles
 SCF Done:  E(RMN15) =  -1242.63752767     A.U. after   12 cycles
 SCF Done:  E(RMN15) =  -1242.63753121     A.U. after   12 cycles
 SCF Done:  E(RMN15) =  -1242.63753265     A.U. after   12 cycles
 SCF Done:  E(RMN15) =  -1242.63753365     A.U. after   11 cycles
 SCF Done:  E(RMN15) =  -1242.63753390     A.U. after   10 cycles
 SCF Done:  E(RMN15) =  -1242.63753400     A.U. after    9 cycles
 SCF Done:  E(RMN15) =  -1242.63753407     A.U. after    9 cycles
 SCF Done:  E(RMN15) =  -1242.63753415     A.U. after    9 cycles
 SCF Done:  E(RMN15) =  -1242.63753417     A.U. after    8 cycles
 Optimization completed.
    -- Stationary point found.
 Normal termination of Gaussian 16 at Wed Dec  6 18:25:35 2023.

 ----------------------------------------------------------------------
 #P Geom=AllCheck Guess=TCheck SCRF=Check GenChk RMN15/6-311++G(d,p) Fr
 eq
 ----------------------------------------------------------------------

 Structure from the checkpoint file:  "/home/exlonk/in_progress/4010.chk"
 ---------------
 name file: 4010
 ---------------
 Charge =  0 Multiplicity = 1

                         Standard orientation:
 ---------------------------------------------------------------------
 Center     Atomic      Atomic             Coordinates (Angstroms)
 Number     Number       Type             X           Y           Z
 ---------------------------------------------------------------------
      1          6           0       -2.080337   -0.946376   -0.436563
      2          6           0       -3.111789   -0.168592   -0.061025
      3          6           0       -4.505150   -0.583648   -0.240018
      4          7           0       -4.736451   -1.760344   -0.802432
      5          6           0       -6.016839   -2.147780   -0.970266
      6          7           0       -7.098126   -1.486469   -0.636613
      7          6           0       -6.900618   -0.271367   -0.054394
      8          6           0       -8.033954    0.488711    0.328728
      9          6           0       -7.875296    1.715870    0.918155
     10          6           0       -6.580263    2.236502    1.150378
     11          6           0       -5.467632    1.519454    0.788201
     12          6           0       -5.599312    0.246792    0.176084
     13          6           0       -0.657799   -0.649519   -0.309105
     14          6           0       -0.154096    0.531899    0.259879
     15          6           0        1.206179    0.758868    0.360756
     16          6           0        2.127435   -0.188674   -0.115320
     17          7           0        3.512189    0.044800   -0.012221
     18          6           0        4.031407    1.357903   -0.155264
     19          6           0        3.532579    2.212416   -1.143014
     20          6           0        4.042261    3.499159   -1.275836
     21          6           0        5.065256    3.943689   -0.441147
     22          6           0        5.570390    3.088046    0.535432
     23          6           0        5.054444    1.805638    0.685540
     24          6           0        4.404757   -1.033639    0.225628
     25          6           0        4.084689   -2.021951    1.160968
     26          6           0        4.960334   -3.077418    1.388853
     27          6           0        6.170782   -3.151860    0.702818
     28          6           0        6.494522   -2.161057   -0.221235
     29          6           0        5.616355   -1.111043   -0.466680
     30          6           0        1.639038   -1.368943   -0.687545
     31          6           0        0.272767   -1.589589   -0.773817
     32          1           0       -2.330335   -1.905323   -0.885347
     33          1           0       -2.928281    0.799063    0.389826
     34          1           0       -6.156498   -3.119566   -1.435840
     35          1           0       -9.010497    0.060597    0.136828
     36          1           0       -8.743860    2.295011    1.210373
     37          1           0       -6.469039    3.207900    1.617704
     38          1           0       -4.485960    1.935543    0.975409
     39          1           0       -0.836238    1.281339    0.646005
     40          1           0        1.574961    1.671682    0.814715
     41          1           0        2.744987    1.859543   -1.799894
     42          1           0        3.646533    4.152029   -2.045537
     43          1           0        5.465386    4.944522   -0.551535
     44          1           0        6.363753    3.423329    1.193781
     45          1           0        5.440152    1.139966    1.449957
     46          1           0        3.146645   -1.955423    1.701271
     47          1           0        4.700298   -3.838009    2.116249
     48          1           0        6.854280   -3.972100    0.887213
     49          1           0        7.431315   -2.210093   -0.764606
     50          1           0        5.861702   -0.342039   -1.191038
     51          1           0        2.338027   -2.107280   -1.063366
     52          1           0       -0.091262   -2.507554   -1.224441
 ---------------------------------------------------------------------

 SCF Done:  E(RMN15) =  -1242.63753417     A.U. after    1 cycles

 The electronic state is 1-A.
 Alpha  occ. eigenvalues --  -14.13004 -14.08554 -14.08431 -10.10638 -10.10243
 Alpha  occ. eigenvalues --  -10.09992 -10.09495 -10.09458 -10.08966 -10.06494
 Alpha  occ. eigenvalues --  -10.06019 -10.05801 -10.05793 -10.05756 -10.05611
 Alpha  occ. eigenvalues --  -10.05587 -10.05466 -10.05245 -10.05233 -10.05208
 Alpha  occ. eigenvalues --  -10.05203 -10.05173 -10.04994 -10.04979 -10.04970
 Alpha  occ. eigenvalues --  -10.04967 -10.04954 -10.04909 -10.04754 -10.04746
 Alpha  occ. eigenvalues --  -10.04730  -1.03069  -1.02735  -0.93999  -0.92149
 Alpha  occ. eigenvalues --   -0.91624  -0.91014  -0.89850  -0.85125  -0.82540
 Alpha  occ. eigenvalues --   -0.81573  -0.80657  -0.80098  -0.80064  -0.79841
 Alpha  occ. eigenvalues --   -0.79129  -0.76168  -0.71462  -0.69504  -0.68720
 Alpha  occ. eigenvalues --   -0.68277  -0.66410  -0.66124  -0.65451  -0.64809
 Alpha  occ. eigenvalues --   -0.62598  -0.61200  -0.59878  -0.59170  -0.58934
 Alpha  occ. eigenvalues --   -0.56864  -0.55426  -0.54950  -0.53186  -0.52915
 Alpha  occ. eigenvalues --   -0.52362  -0.50924  -0.50470  -0.50137  -0.49363
 Alpha  occ. eigenvalues --   -0.48944  -0.48691  -0.48572  -0.48032  -0.47583
 Alpha  occ. eigenvalues --   -0.47431  -0.47265  -0.47195  -0.45877  -0.44041
 Alpha  occ. eigenvalues --   -0.43286  -0.43037  -0.42748  -0.42221  -0.41671
 Alpha  occ. eigenvalues --   -0.41101  -0.41014  -0.40555  -0.40128  -0.39624
 Alpha  occ. eigenvalues --   -0.39042  -0.38941  -0.38578  -0.36790  -0.33772
 Alpha  occ. eigenvalues --   -0.33445  -0.30903  -0.30801  -0.30780  -0.29746
 Alpha  occ. eigenvalues --   -0.29658  -0.29534  -0.29059  -0.26558  -0.22465
 Alpha virt. eigenvalues --   -0.06644  -0.02021  -0.01425  -0.01027  -0.00838
 Alpha virt. eigenvalues --    0.01039   0.01238   0.01695   0.02654   0.03164
 Alpha virt. eigenvalues --    0.03662   0.04169   0.04218   0.04513   0.04929

 Mulliken charges:
               1
     1  C    0.145907
     2  C    0.041597
     3  C    0.172180
     4  N    0.045653
     5  C    0.144582
     6  N   -0.021621
     7  C   -0.689688
     8  C   -0.571951
     9  C   -0.102347
    10  C   -0.480983
    11  C   -0.476419
    12  C    1.275423
    13  C    0.634035
    14  C   -0.534445
    15  C   -0.181324
    16  C   -0.426063
    17  N    0.602297
    18  C   -0.161958
    19  C    0.081359
    20  C   -0.349983
    21  C   -0.135760
    22  C   -0.379783
    23  C    0.076990
    24  C   -0.152427
    25  C    0.096750
    26  C   -0.361297
    27  C   -0.111649
    28  C   -0.434344
    29  C    0.134871
    30  C   -0.012446
    31  C   -0.314441
    32  H    0.135478
    33  H   -0.233960
    34  H    0.179298
    35  H    0.166187
    36  H    0.134185
    37  H    0.147587
    38  H    0.067052
    39  H    0.089316
    40  H    0.148948
    41  H    0.122166
    42  H    0.147286
    43  H    0.126506
    44  H    0.146644
    45  H    0.121539
    46  H    0.120501
    47  H    0.148050
    48  H    0.128918
    49  H    0.145895
    50  H    0.123648
    51  H    0.131091
    52  H    0.150948
 Sum of Mulliken charges =  -0.00000

 Dipole moment (field-independent basis, Debye):
    X=              3.4587    Y=              2.4276    Z=              1.1581  Tot=              4.3814
 Quadrupole moment (field-independent basis, Debye-Ang):
   XX=           -179.7186   YY=           -167.8790   ZZ=           -182.3632
   XY=            -16.4587   XZ=             -6.8834   YZ=              1.2177

  Exact polarizability:     652.533     -13.583     377.270      -1.677      16.450     227.399
 Approx polarizability:     681.338     -12.737     519.188      -0.485      34.580     341.973

                      1                      2                      3
                      A                      A                      A
 Frequencies --      7.6873                19.4710                26.5629
 Red. masses --      5.6420                 5.9471                 5.1918
 Frc consts  --      0.0002                 0.0013                 0.0022
 IR Inten    --      0.5976                 0.0652                 0.2301

                      4                      5                      6
                      A                      A                      A
 Frequencies --     40.6586                42.3662                48.9335
 Red. masses --      4.2800                 4.0742                 5.1480
 Frc consts  --      0.0042                 0.0043                 0.0073
 IR Inten    --      2.0031                 4.0571                 0.1914

                      7                      8                      9
                      A                      A                      A
 Frequencies --     62.3704                71.2384                89.0857
 Red. masses --      5.2637                 4.7593                 3.9296
 Frc consts  --      0.0121                 0.0142                 0.0184
 IR Inten    --      0.3938                 0.1244                 0.1117

                     10                     11                     12
                      A                      A                      A
 Frequencies --     94.8744               121.8562               152.9655
 Red. masses --      4.0376                 2.8052                 7.0536
 Frc consts  --      0.0214                 0.0245                 0.0972
 IR Inten    --      0.1501                 0.6178                 0.8473

                     13                     14                     15
                      A                      A                      A
 Frequencies --    171.6665               174.7654               196.0400
 Red. masses --      6.1331                 5.8554                 4.0069
 Frc consts  --      0.1065                 0.1054                 0.0907
 IR Inten    --      0.3808                 1.7488                 0.2609

                     16                     17                     18
                      A                      A                      A
 Frequencies --    237.2767               245.1690               266.7019
 Red. masses --      4.4875                 4.5139                 4.7423
 Frc consts  --      0.1489                 0.1599                 0.1987
 IR Inten    --      0.8326                 4.5815                 0.1390

                     19                     20                     21
                      A                      A                      A
 Frequencies --    300.1834               326.8613               338.3512
 Red. masses --      6.0721                 4.8817                 4.8542
 Frc consts  --      0.3224                 0.3073                 0.3274
 IR Inten    --      2.4107                 0.9504                 1.2068

                     22                     23                     24
                      A                      A                      A
 Frequencies --    359.8256               405.2264               413.8219
 Red. masses --      4.6205                 4.7870                 2.9579
 Frc consts  --      0.3525                 0.4631                 0.2984
 IR Inten    --      0.9167                 3.7871                 3.7743

                     25                     26                     27
                      A                      A                      A
 Frequencies --    414.6762               421.0033               432.1212
 Red. masses --      2.9974                 2.9930                 3.3105
 Frc consts  --      0.3037                 0.3126                 0.3642
 IR Inten    --      6.4884                 2.2320                 1.3329

                     28                     29                     30
                      A                      A                      A
 Frequencies --    444.6142               464.4322               493.1106
 Red. masses --      4.9060                 3.4811                 5.2890
 Frc consts  --      0.5714                 0.4424                 0.7577
 IR Inten    --      2.6155                 4.5329                 1.7712

                     31                     32                     33
                      A                      A                      A
 Frequencies --    499.9487               513.1139               524.0163
 Red. masses --      4.1440                 3.2107                 5.7931
 Frc consts  --      0.6103                 0.4981                 0.9372
 IR Inten    --     50.1737                16.0086                 0.3319

                     34                     35                     36
                      A                      A                      A
 Frequencies --    527.7035               530.1688               585.4035
 Red. masses --      2.9644                 6.2082                 6.0526
 Frc consts  --      0.4864                 1.0281                 1.2221
 IR Inten    --     17.1542                10.6234                 6.3335

                     37                     38                     39
                      A                      A                      A
 Frequencies --    591.9625               611.7420               613.1894
 Red. masses --      3.1215                 6.2223                 5.7085
 Frc consts  --      0.6445                 1.3720                 1.2646
 IR Inten    --      0.2487                 0.2197                 3.0684

                     40                     41                     42
                      A                      A                      A
 Frequencies --    619.4012               638.8318               644.8709
 Red. masses --      5.7926                 6.8416                 6.3427
 Frc consts  --      1.3094                 1.6451                 1.5541
 IR Inten    --      7.8703                11.4326                22.9938

                     43                     44                     45
                      A                      A                      A
 Frequencies --    681.5736               706.0778               706.7692
 Red. masses --      3.8730                 2.9672                 1.9951
 Frc consts  --      1.0600                 0.8716                 0.5872
 IR Inten    --      4.1216                10.2616                40.3370

                     46                     47                     48
                      A                      A                      A
 Frequencies --    709.0620               736.0459               769.1520
 Red. masses --      2.4888                 3.5650                 2.3221
 Frc consts  --      0.7372                 1.1379                 0.8094
 IR Inten    --     53.8924                16.2950                 0.8262

                     49                     50                     51
                      A                      A                      A
 Frequencies --    770.9103               774.7553               779.3669
 Red. masses --      1.7704                 1.4846                 3.7742
 Frc consts  --      0.6199                 0.5250                 1.3507
 IR Inten    --     61.1166                57.4045                 0.8233

                     52                     53                     54
                      A                      A                      A
 Frequencies --    800.5128               821.5436               835.5463
 Red. masses --      2.6791                 6.1680                 1.3091
 Frc consts  --      1.0115                 2.4528                 0.5385
 IR Inten    --      1.1013                12.2573                 3.8540

                     55                     56                     57
                      A                      A                      A
 Frequencies --    846.0877               852.0624               852.7723
 Red. masses --      1.4875                 1.3621                 1.2540
 Frc consts  --      0.6274                 0.5826                 0.5373
 IR Inten    --     19.3526                 9.9178                 0.7363

                     58                     59                     60
                      A                      A                      A
 Frequencies --    870.9702               882.0236               890.1210
 Red. masses --      4.4612                 1.7575                 2.0848
 Frc consts  --      1.9939                 0.8056                 0.9732
 IR Inten    --      1.3435                 7.0066                 4.2017

                     61                     62                     63
                      A                      A                      A
 Frequencies --    909.1550               917.6578               922.6276
 Red. masses --      4.9475                 1.9951                 1.8953
 Frc consts  --      2.4094                 0.9899                 0.9506
 IR Inten    --     39.6141                 5.8561                 3.4339

                     64                     65                     66
                      A                      A                      A
 Frequencies --    941.9857               949.2010               973.7044
 Red. masses --      2.7502                 2.9213                 1.3412
 Frc consts  --      1.4378                 1.5508                 0.7492
 IR Inten    --      1.6396                 0.2837                 2.1785

                     67                     68                     69
                      A                      A                      A
 Frequencies --    980.4029               990.5190               992.1129
 Red. masses --      1.3629                 1.3568                 1.4451
 Frc consts  --      0.7719                 0.7843                 0.8381
 IR Inten    --      0.2689                 0.8174                 4.1055

                     70                     71                     72
                      A                      A                      A
 Frequencies --    995.1248               995.8378              1002.4781
 Red. masses --      1.3645                 1.3638                 5.5530
 Frc consts  --      0.7961                 0.7968                 3.2880
 IR Inten    --      0.2362                 0.3884                 0.1625

                     73                     74                     75
                      A                      A                      A
 Frequencies --   1003.5628              1011.9730              1012.1175
 Red. masses --      5.4754                 1.2982                 1.3006
 Frc consts  --      3.2491                 0.7833                 0.7850
 IR Inten    --      0.0220                 0.0435                 0.0298

                     76                     77                     78
                      A                      A                      A
 Frequencies --   1014.3560              1018.6170              1019.8519
 Red. masses --      1.2303                 1.3069                 2.5356
 Frc consts  --      0.7458                 0.7989                 1.5539
 IR Inten    --     22.4663                 1.0520                 1.6108

                     79                     80                     81
                      A                      A                      A
 Frequencies --   1040.0363              1046.9452              1051.6246
 Red. masses --      4.3956                 2.0006                 2.0737
 Frc consts  --      2.8013                 1.2920                 1.3512
 IR Inten    --     29.5265                 6.1679                 5.0987

                     82                     83                     84
                      A                      A                      A
 Frequencies --   1053.4406              1100.5686              1102.3279
 Red. masses --      1.9225                 1.4430                 1.4318
 Frc consts  --      1.2570                 1.0298                 1.0250
 IR Inten    --      7.9021                10.2911                 0.4078

                     85                     86                     87
                      A                      A                      A
 Frequencies --   1131.3092              1132.7354              1160.8205
 Red. masses --      1.5415                 1.2876                 1.1123
 Frc consts  --      1.1624                 0.9734                 0.8831
 IR Inten    --     15.3443                 4.6070                 0.2756

                     88                     89                     90
                      A                      A                      A
 Frequencies --   1162.4894              1173.4426              1180.0326
 Red. masses --      1.0957                 1.3154                 1.1868
 Frc consts  --      0.8724                 1.0672                 0.9737
 IR Inten    --      0.6855                25.3635                 8.0822

                     91                     92                     93
                      A                      A                      A
 Frequencies --   1182.9509              1185.0136              1207.6120
 Red. masses --      1.1106                 1.1508                 2.0633
 Frc consts  --      0.9157                 0.9522                 1.7728
 IR Inten    --      4.3515                94.8681                13.4840

                     94                     95                     96
                      A                      A                      A
 Frequencies --   1214.5858              1225.9670              1251.6516
 Red. masses --      2.3232                 1.8282                 2.3854
 Frc consts  --      2.0193                 1.6189                 2.2018
 IR Inten    --      4.5757                 0.6100                35.1722

                     97                     98                     99
                      A                      A                      A
 Frequencies --   1290.8557              1300.0413              1306.8653
 Red. masses --      2.0563                 2.4849                 1.9623
 Frc consts  --      2.0188                 2.4744                 1.9746
 IR Inten    --     40.1057                 2.9369                42.9361

                    100                    101                    102
                      A                      A                      A
 Frequencies --   1312.1238              1316.9851              1323.8324
 Red. masses --      2.1363                 1.9584                 2.9809
 Frc consts  --      2.1670                 2.0013                 3.0780
 IR Inten    --    137.3127                97.6442                17.8497

                    103                    104                    105
                      A                      A                      A
 Frequencies --   1338.2803              1343.0774              1346.0112
 Red. masses --      1.5535                 2.3616                 4.4263
 Frc consts  --      1.6393                 2.5099                 4.7248
 IR Inten    --     38.6103                 9.4866                13.6704

                    106                    107                    108
                      A                      A                      A
 Frequencies --   1351.2395              1358.6034              1362.0225
 Red. masses --      2.0152                 2.9976                 2.6814
 Frc consts  --      2.1678                 3.2599                 2.9308
 IR Inten    --     58.2477                51.4440               560.0952

                    109                    110                    111
                      A                      A                      A
 Frequencies --   1389.5791              1423.1908              1445.4429
 Red. masses --      4.0413                 2.9039                 3.3261
 Frc consts  --      4.5977                 3.4654                 4.0943
 IR Inten    --     81.9296                60.2296                12.7628

                    112                    113                    114
                      A                      A                      A
 Frequencies --   1456.9607              1480.7940              1487.8336
 Red. masses --      3.2901                 2.5190                 2.5288
 Frc consts  --      4.1148                 3.2544                 3.2982
 IR Inten    --     53.8215                 5.5634                 9.6972

                    115                    116                    117
                      A                      A                      A
 Frequencies --   1491.4992              1526.4308              1528.1220
 Red. masses --      2.7113                 2.5622                 2.6718
 Frc consts  --      3.5536                 3.5174                 3.6759
 IR Inten    --     43.6099               213.8099               177.2012

                    118                    119                    120
                      A                      A                      A
 Frequencies --   1543.8113              1547.7355              1612.9059
 Red. masses --      3.8390                 3.0548                 7.9594
 Frc consts  --      5.3908                 4.3115                12.1996
 IR Inten    --    122.2305               548.0410               422.7555

                    121                    122                    123
                      A                      A                      A
 Frequencies --   1620.2325              1629.5701              1644.2774
 Red. masses --      6.9433                 7.6966                 6.5959
 Frc consts  --     10.7392                12.0419                10.5069
 IR Inten    --     16.0281               326.3777                10.0228

                    124                    125                    126
                      A                      A                      A
 Frequencies --   1649.9291              1658.1762              1658.5269
 Red. masses --      6.7726                 6.2283                 6.3403
 Frc consts  --     10.8627                10.0897                10.2756
 IR Inten    --     37.2276               122.7012               295.0916

                    127                    128                    129
                      A                      A                      A
 Frequencies --   1672.6999              1681.0617              1697.8689
 Red. masses --      6.3570                 6.5871                 6.0981
 Frc consts  --     10.4794                10.9676                10.3574
 IR Inten    --     36.0137                14.5299               199.2412

                    130                    131                    132
                      A                      A                      A
 Frequencies --   3185.0914              3197.1348              3199.3611
 Red. masses --      1.0887                 1.0907                 1.0887
 Frc consts  --      6.5075                 6.5687                 6.5657
 IR Inten    --      0.5483                44.9890                13.3938

                    133                    134                    135
                      A                      A                      A
 Frequencies --   3202.0991              3202.3408              3205.1476
 Red. masses --      1.0850                 1.0851                 1.0874
 Frc consts  --      6.5549                 6.5560                 6.5817
 IR Inten    --      7.2382                 6.7977                13.0792

                    136                    137                    138
                      A                      A                      A
 Frequencies --   3207.4968              3207.6682              3207.8202
 Red. masses --      1.0862                 1.0880                 1.0880
 Frc consts  --      6.5839                 6.5954                 6.5962
 IR Inten    --      1.2706                 1.6897                 0.8664

                    139                    140                    141
                      A                      A                      A
 Frequencies --   3216.3132              3216.4432              3217.2166
 Red. masses --      1.0917                 1.0916                 1.0892
 Frc consts  --      6.6539                 6.6539                 6.6425
 IR Inten    --     13.2640                 7.5528                 5.9937

                    142                    143                    144
                      A                      A                      A
 Frequencies --   3221.6997              3221.8979              3222.2753
 Red. masses --      1.0954                 1.0954                 1.0936
 Frc consts  --      6.6985                 6.6996                 6.6901
 IR Inten    --     21.3942                19.2241                14.2680

                    145                    146                    147
                      A                      A                      A
 Frequencies --   3223.0977              3225.6398              3231.8820
 Red. masses --      1.0937                 1.0923                 1.0989
 Frc consts  --      6.6943                 6.6962                 6.7624
 IR Inten    --      2.5606                 3.0513                20.8661

                    148                    149                    150
                      A                      A                      A
 Frequencies --   3232.1031              3235.0708              3241.7296
 Red. masses --      1.0988                 1.0953                 1.0924
 Frc consts  --      6.7633                 6.7537                 6.7635
 IR Inten    --     16.1992                22.7697                16.9598

 - Thermochemistry -
 -------------------
 Temperature   298.150 Kelvin.  Pressure   1.00000 Atm.
 Atom     1 has atomic number  6 and mass  12.00000

 Molecular mass:   399.17355 amu.
 Principal axes and moments of inertia in atomic units:
                           1         2         3
     Eigenvalues --  5826.84791********************
           X            0.99999  -0.00317  -0.00102
           Y            0.00317   0.99999   0.00179
           Z            0.00102  -0.00179   1.00000
 This molecule is an asymmetric top.
 Rotational symmetry number  1.
 Warning -- assumption of classical behavior for rotation
           may cause significant error
 Rotational temperatures (Kelvin)      0.01486     0.00246     0.00219
 Rotational constants (GHZ):           0.30973     0.05118     0.04559
 Zero-point vibrational energy    1092433.2 (Joules/Mol)
                                  261.09781 (Kcal/Mol)
 Warning -- explicit consideration of  40 degrees of freedom as
           vibrations may cause significant error
 Vibrational temperatures:     11.06    28.01    38.22    58.50    60.96
          (Kelvin)             70.40    89.74   102.50   128.17   136.50
                              175.32   220.08   246.99   251.45   282.06
                              341.39   352.74   383.72   431.90   470.28
                              486.81   517.71   583.03   595.40   596.63
                              605.73   621.73   639.70   668.21   709.48
                              719.31   738.26   753.94   759.25   762.79
                              842.27   851.70   880.16   882.24   891.18
                              919.14   927.83   980.63  1015.89  1016.88
                             1020.18  1059.01  1106.64  1109.17  1114.70
                             1121.34  1151.76  1182.02  1202.16  1217.33
                             1225.93  1226.95  1253.13  1269.04  1280.69
                             1308.07  1320.30  1327.46  1355.31  1365.69
                             1400.94  1410.58  1425.14  1427.43  1431.76
                             1432.79  1442.34  1443.90  1456.00  1456.21
                             1459.43  1465.56  1467.34  1496.38  1506.32
                             1513.05  1515.67  1583.47  1586.00  1627.70
                             1629.75  1670.16  1672.56  1688.32  1697.80
                             1702.00  1704.97  1737.48  1747.52  1763.89
                             1800.85  1857.25  1870.47  1880.29  1887.85
                             1894.85  1904.70  1925.49  1932.39  1936.61
                             1944.13  1954.73  1959.65  1999.29  2047.65
                             2079.67  2096.24  2130.53  2140.66  2145.93
                             2196.19  2198.63  2221.20  2226.85  2320.61
                             2331.15  2344.59  2365.75  2373.88  2385.75
                             2386.25  2406.64  2418.67  2442.85  4582.64
                             4599.96  4603.17  4607.11  4607.45  4611.49
                             4614.87  4615.12  4615.34  4627.56  4627.74
                             4628.86  4635.31  4635.59  4636.14  4637.32
                             4640.98  4649.96  4650.28  4654.55  4664.13

 Zero-point correction=                           0.416086 (Hartree/Particle)
 Thermal correction to Energy=                    0.440504
 Thermal correction to Enthalpy=                  0.441448
 Thermal correction to Gibbs Free Energy=         0.357633
 Sum of electronic and zero-point Energies=          -1242.221448
 Sum of electronic and thermal Energies=             -1242.197030
 Sum of electronic and thermal Enthalpies=           -1242.196086
 Sum of electronic and thermal Free Energies=        -1242.279901

                     E (Thermal)             CV                S
                      KCal/Mol        Cal/Mol-Kelvin    Cal/Mol-Kelvin
 Total                  276.420             97.669            176.402
 Electronic               0.000              0.000              0.000
 Translational            0.889              2.981             43.844
 Rotational               0.889              2.981             37.340
 Vibrational            274.643             91.707             95.218
 Vibration     1          0.593              1.987              8.534
 Vibration     2          0.593              1.986              6.687
 Vibration     3          0.593              1.984              6.071
 Vibration     4          0.594              1.981              5.227
 Vibration     5          0.595              1.980              5.145
 Vibration     6          0.595              1.978              4.860
 Vibration     7          0.597              1.972              4.381
 Vibration     8          0.598              1.968              4.119
 Vibration     9          0.602              1.957              3.680
 Vibration    10          0.603              1.953              3.557
 Vibration    11          0.609              1.931              3.071
 Vibration    12          0.619              1.899              2.635
 Vibration    13          0.626              1.877              2.417
 Vibration    14          0.627              1.873              2.384
 Vibration    15          0.636              1.845              2.170
 Vibration    16          0.656              1.784              1.823
 Vibration    17          0.660              1.771              1.765
 Vibration    18          0.672              1.734              1.617
 Vibration    19          0.693              1.673              1.416
 Vibration    20          0.711              1.622              1.276
 Vibration    21          0.719              1.599              1.220
 Vibration    22          0.734              1.555              1.123
 Vibration    23          0.770              1.459              0.944
 Vibration    24          0.777              1.440              0.913
 Vibration    25          0.778              1.438              0.910
 Vibration    26          0.784              1.425              0.889
 Vibration    27          0.793              1.400              0.852
 Vibration    28          0.804              1.373              0.812
 Vibration    29          0.822              1.329              0.753
 Vibration    30          0.849              1.265              0.676
 Vibration    31          0.855              1.250              0.658
 Vibration    32          0.868              1.221              0.626
 Vibration    33          0.879              1.197              0.601
 Vibration    34          0.883              1.189              0.592
 Vibration    35          0.885              1.183              0.587
 Vibration    36          0.942              1.063              0.475
 Vibration    37          0.949              1.049              0.464
 Vibration    38          0.971              1.007              0.430
 Vibration    39          0.973              1.004              0.428
 Vibration    40          0.979              0.991              0.417

 Optimization completed.
    -- Stationary point found.
 Normal termination of Gaussian 16 at Wed Dec  6 20:19:02 2023.
