 Gaussian 16, Revision C.01,
 Gaussian 16:  EM64L-G16RevC.01  3-Jul-2019

 ------------------------------
 #p MN15/6-311++G(d,p) opt freq
 ------------------------------

 ---------------
 name file: 4076
 ---------------
 Symbolic Z-matrix:
 Charge =  0 Multiplicity = 1

 SCF Done:  E(RMN15) =  -1243.85015931     A.U. after   16 cycles
 SCF Done:  E(RMN15) =  -1243.85983718     A.U. after   15 cycles
 SCF Done:  E(RMN15) =  -1243.86129412     A.U. after   15 cycles
 SCF Done:  E(RMN15) =  -1243.86024051     A.U. after   16 cycles
 SCF Done:  E(RMN15) =  -1243.86194076     A.U. after   15 cycles
 SCF Done:  E(RMN15) =  -1243.86219613     A.U. after   14 cycles
 SCF Done:  E(RMN15) =  -1243.86244870     A.U. after   15 cycles
 SCF Done:  E(RMN15) =  -1243.84804578     A.U. after   17 cycles
 SCF Done:  E(RMN15) =  -1243.85861782     A.U. after   16 cycles
 SCF Done:  E(RMN15) =  -1243.86252778     A.U. after   13 cycles
 SCF Done:  E(RMN15) =  -1243.86292794     A.U. after   14 cycles
 SCF Done:  E(RMN15) =  -1243.86305388     A.U. after   15 cycles
 SCF Done:  E(RMN15) =  -1243.86326669     A.U. after   13 cycles
 SCF Done:  E(RMN15) =  -1243.86326241     A.U. after   14 cycles
 SCF Done:  E(RMN15) =  -1243.86346395     A.U. after   13 cycles
 SCF Done:  E(RMN15) =  -1243.86351979     A.U. after   14 cycles
 SCF Done:  E(RMN15) =  -1243.86352494     A.U. after   12 cycles
 SCF Done:  E(RMN15) =  -1243.86352605     A.U. after   11 cycles
 SCF Done:  E(RMN15) =  -1243.86352621     A.U. after   10 cycles
 Optimization completed.
    -- Stationary point found.
 Normal termination of Gaussian 16 at Tue Dec  5 00:52:20 2023.

 ----------------------------------------------------------------------
 #P Geom=AllCheck Guess=TCheck SCRF=Check GenChk RMN15/6-311++G(d,p) Fr
 eq
 ----------------------------------------------------------------------

 Structure from the checkpoint file:  "/home/exlonk/in_progress/4076.chk"
 ---------------
 name file: 4076
 ---------------
 Charge =  0 Multiplicity = 1

                         Standard orientation:
 ---------------------------------------------------------------------
 Center     Atomic      Atomic             Coordinates (Angstroms)
 Number     Number       Type             X           Y           Z
 ---------------------------------------------------------------------
      1          6           0        5.439159    0.357036   -1.708572
      2          8           0        4.776784   -0.288192   -0.646280
      3          6           0        3.434425   -0.436457   -0.742065
      4          6           0        2.659368    0.003816   -1.803053
      5          6           0        1.274236   -0.199325   -1.815270
      6          6           0        0.659213   -0.846966   -0.754949
      7          7           0       -0.753344   -0.973211   -0.734992
      8          6           0       -1.482230   -1.877282    0.023934
      9          8           0       -1.046245   -2.830089    0.639209
     10          6           0       -2.895938   -1.437707   -0.076136
     11          6           0       -4.030861   -2.022206    0.470146
     12          6           0       -5.252128   -1.395229    0.240993
     13          6           0       -5.320943   -0.218181   -0.513644
     14          6           0       -4.175603    0.359543   -1.060546
     15          6           0       -2.963683   -0.274792   -0.826656
     16          6           0       -1.573919    0.102390   -1.268321
     17          6           0       -1.156195    1.461987   -0.703074
     18          8           0       -1.180687    2.473685   -1.361302
     19          8           0       -0.802817    1.343699    0.568223
     20          6           0       -0.110962    2.412704    1.289067
     21          6           0       -1.026671    3.617225    1.451095
     22          6           0        1.180712    2.746733    0.555121
     23          6           0        0.192950    1.769673    2.632896
     24          6           0        1.430595   -1.291250    0.329992
     25          6           0        2.802587   -1.094644    0.339545
     26          8           0        3.615005   -1.492350    1.343284
     27          6           0        3.022768   -2.136755    2.450386
     28          1           0        5.305735   -0.187217   -2.650272
     29          1           0        5.081639    1.385326   -1.835337
     30          1           0        6.495741    0.373597   -1.449905
     31          1           0        3.119453    0.512825   -2.640072
     32          1           0        0.695916    0.158190   -2.658863
     33          1           0       -3.948750   -2.933105    1.051911
     34          1           0       -6.162428   -1.818114    0.649729
     35          1           0       -6.284159    0.252063   -0.675687
     36          1           0       -4.230164    1.273172   -1.642469
     37          1           0       -1.507818    0.179975   -2.357345
     38          1           0       -1.228324    4.093155    0.492046
     39          1           0       -1.971625    3.311918    1.907721
     40          1           0       -0.545078    4.342271    2.112579
     41          1           0        1.770579    1.836159    0.409016
     42          1           0        0.982288    3.205705   -0.414077
     43          1           0        1.763353    3.445461    1.161051
     44          1           0        0.732770    2.475908    3.267901
     45          1           0       -0.732243    1.477782    3.134627
     46          1           0        0.811192    0.879627    2.485260
     47          1           0        0.937480   -1.794778    1.148082
     48          1           0        3.833650   -2.381297    3.132995
     49          1           0        2.508313   -3.054799    2.148979
     50          1           0        2.308297   -1.477249    2.956664
 ---------------------------------------------------------------------

 SCF Done:  E(RMN15) =  -1243.86352621     A.U. after    1 cycles

 The electronic state is 1-A.
 Alpha  occ. eigenvalues --  -18.85207 -18.83412 -18.83353 -18.80345 -18.77859
 Alpha  occ. eigenvalues --  -14.13529 -10.18809 -10.15385 -10.11882 -10.11133
 Alpha  occ. eigenvalues --  -10.10820 -10.10493 -10.09403 -10.09086 -10.09000
 Alpha  occ. eigenvalues --  -10.07433 -10.06349 -10.06281 -10.06148 -10.05960
 Alpha  occ. eigenvalues --  -10.05923 -10.04832 -10.04553 -10.04187 -10.03351
 Alpha  occ. eigenvalues --  -10.03103 -10.02917  -1.16270  -1.12806  -1.10675
 Alpha  occ. eigenvalues --   -1.09409  -1.07468  -1.01905  -0.93242  -0.90362
 Alpha  occ. eigenvalues --   -0.87233  -0.84444  -0.82301  -0.80907  -0.79402
 Alpha  occ. eigenvalues --   -0.77962  -0.75412  -0.74687  -0.74590  -0.74427
 Alpha  occ. eigenvalues --   -0.69592  -0.69060  -0.66343  -0.64876  -0.64109
 Alpha  occ. eigenvalues --   -0.62241  -0.59493  -0.58559  -0.56673  -0.56553
 Alpha  occ. eigenvalues --   -0.55861  -0.55691  -0.54219  -0.53402  -0.53125
 Alpha  occ. eigenvalues --   -0.52418  -0.52133  -0.51392  -0.50765  -0.50004
 Alpha  occ. eigenvalues --   -0.49810  -0.49293  -0.49018  -0.48604  -0.47636
 Alpha  occ. eigenvalues --   -0.46489  -0.46409  -0.46053  -0.45360  -0.44165
 Alpha  occ. eigenvalues --   -0.43997  -0.43607  -0.43073  -0.42320  -0.42189
 Alpha  occ. eigenvalues --   -0.41658  -0.41137  -0.40628  -0.40170  -0.39574
 Alpha  occ. eigenvalues --   -0.38431  -0.38234  -0.38043  -0.37419  -0.37238
 Alpha  occ. eigenvalues --   -0.35249  -0.34247  -0.31820  -0.31170  -0.30743
 Alpha  occ. eigenvalues --   -0.29981  -0.27625  -0.23949
 Alpha virt. eigenvalues --   -0.03222  -0.01133   0.00851   0.02349   0.02756
 Alpha virt. eigenvalues --    0.03166   0.03387   0.03794   0.04421   0.04758
 Alpha virt. eigenvalues --    0.05247   0.05862   0.06179   0.06420   0.06553

 Mulliken charges:
               1
     1  C   -0.187555
     2  O   -0.069802
     3  C   -0.723325
     4  C   -0.136185
     5  C    0.302404
     6  C    0.005303
     7  N    0.276381
     8  C   -0.117705
     9  O   -0.304243
    10  C    0.724736
    11  C   -0.823791
    12  C   -0.215068
    13  C   -0.295675
    14  C   -0.651961
    15  C    0.793261
    16  C   -0.248050
    17  C   -0.378005
    18  O   -0.135732
    19  O    0.266786
    20  C   -0.441743
    21  C   -0.185054
    22  C   -0.041310
    23  C   -0.108339
    24  C    0.733438
    25  C   -0.901268
    26  O   -0.060759
    27  C   -0.138735
    28  H    0.122898
    29  H    0.115488
    30  H    0.160795
    31  H    0.158479
    32  H    0.120554
    33  H    0.166429
    34  H    0.138261
    35  H    0.143460
    36  H    0.134168
    37  H    0.261148
    38  H    0.148587
    39  H    0.108327
    40  H    0.128246
    41  H    0.038522
    42  H    0.145785
    43  H    0.129631
    44  H    0.134180
    45  H    0.127397
    46  H    0.025682
    47  H    0.144775
    48  H    0.163808
    49  H    0.140604
    50  H    0.104772
 Sum of Mulliken charges =  -0.00000

 Dipole moment (field-independent basis, Debye):
    X=             -0.7233    Y=              2.3759    Z=              0.2082  Tot=              2.4923
 Quadrupole moment (field-independent basis, Debye-Ang):
   XX=           -140.1201   YY=           -168.2740   ZZ=           -150.0554
   XY=              4.9340   XZ=             -4.7830   YZ=              1.3121

  Exact polarizability:     352.134       9.529     234.923      -4.476     -32.589     225.665
 Approx polarizability:     405.149       5.747     321.789       0.692     -68.896     322.592

                      1                      2                      3
                      A                      A                      A
 Frequencies --     28.6515                36.5464                38.7489
 Red. masses --      4.0877                 5.0588                 4.1080
 Frc consts  --      0.0020                 0.0040                 0.0036
 IR Inten    --      0.2390                 0.7691                 0.3950

                      4                      5                      6
                      A                      A                      A
 Frequencies --     47.7048                50.2839                76.6030
 Red. masses --      3.6986                 4.5557                 4.2421
 Frc consts  --      0.0050                 0.0068                 0.0147
 IR Inten    --      0.2761                 0.9259                 4.5820

                      7                      8                      9
                      A                      A                      A
 Frequencies --     87.4594               101.1093               104.1206
 Red. masses --      3.8994                 4.8534                 3.5361
 Frc consts  --      0.0176                 0.0292                 0.0226
 IR Inten    --      3.9285                 2.2273                 1.7868

                     10                     11                     12
                      A                      A                      A
 Frequencies --    124.6131               138.2759               150.8882
 Red. masses --      3.8221                 4.5490                 4.7132
 Frc consts  --      0.0350                 0.0512                 0.0632
 IR Inten    --      1.5659                 0.5809                 1.8250

                     13                     14                     15
                      A                      A                      A
 Frequencies --    163.5908               183.8546               199.1669
 Red. masses --      4.3321                 3.8256                 2.8738
 Frc consts  --      0.0683                 0.0762                 0.0672
 IR Inten    --      1.6309                 1.8107                 1.0574

                     16                     17                     18
                      A                      A                      A
 Frequencies --    210.5028               216.6274               229.4544
 Red. masses --      1.2513                 3.6318                 3.2107
 Frc consts  --      0.0327                 0.1004                 0.0996
 IR Inten    --      0.2850                 0.2067                 3.4468

                     19                     20                     21
                      A                      A                      A
 Frequencies --    244.5638               256.5217               269.9612
 Red. masses --      5.3205                 1.0942                 1.3746
 Frc consts  --      0.1875                 0.0424                 0.0590
 IR Inten    --      0.6121                 0.2119                 0.4134

                     22                     23                     24
                      A                      A                      A
 Frequencies --    286.5151               292.3121               299.9580
 Red. masses --      1.0778                 1.4990                 5.5989
 Frc consts  --      0.0521                 0.0755                 0.2968
 IR Inten    --      0.2628                 0.1386                 8.7088

                     25                     26                     27
                      A                      A                      A
 Frequencies --    312.8822               318.4997               351.2999
 Red. masses --      2.4776                 2.9083                 2.5587
 Frc consts  --      0.1429                 0.1738                 0.1860
 IR Inten    --      1.9291                 6.4652                 2.2600

                     28                     29                     30
                      A                      A                      A
 Frequencies --    375.3464               380.4672               384.5260
 Red. masses --      4.1881                 3.8118                 3.8059
 Frc consts  --      0.3476                 0.3251                 0.3316
 IR Inten    --      0.3295                 0.9896                 5.1100

                     31                     32                     33
                      A                      A                      A
 Frequencies --    410.7184               420.6879               433.4670
 Red. masses --      3.4814                 3.0385                 3.7096
 Frc consts  --      0.3460                 0.3168                 0.4107
 IR Inten    --      0.5495                 6.5256                 1.3037

                     34                     35                     36
                      A                      A                      A
 Frequencies --    448.9401               455.6552               469.7117
 Red. masses --      3.9474                 3.6417                 3.0999
 Frc consts  --      0.4688                 0.4455                 0.4030
 IR Inten    --      1.5555                 1.8169                 1.7257

                     37                     38                     39
                      A                      A                      A
 Frequencies --    494.0639               500.1741               530.1198
 Red. masses --      3.9808                 6.9634                 6.4148
 Frc consts  --      0.5725                 1.0264                 1.0621
 IR Inten    --      3.2931                 3.4721                 6.6532

                     40                     41                     42
                      A                      A                      A
 Frequencies --    568.8390               599.0915               610.1155
 Red. masses --      7.6906                 6.2424                 4.0644
 Frc consts  --      1.4662                 1.3200                 0.8914
 IR Inten    --      6.2802                 9.4840                 2.0630

                     43                     44                     45
                      A                      A                      A
 Frequencies --    638.1838               662.1081               681.5255
 Red. masses --      4.0362                 4.5864                 5.5628
 Frc consts  --      0.9685                 1.1846                 1.5223
 IR Inten    --     15.1479                 3.5623                 4.8780

                     46                     47                     48
                      A                      A                      A
 Frequencies --    702.8641               734.8298               743.6410
 Red. masses --      4.4732                 3.1876                 3.0688
 Frc consts  --      1.3020                 1.0141                 0.9999
 IR Inten    --     19.6734                19.0819                 1.2258

                     49                     50                     51
                      A                      A                      A
 Frequencies --    762.3102               784.6886               797.1308
 Red. masses --      2.5551                 5.1630                 4.7192
 Frc consts  --      0.8748                 1.8730                 1.7668
 IR Inten    --     42.5859                23.4023                 6.0180

                     52                     53                     54
                      A                      A                      A
 Frequencies --    800.1951               808.5132               815.5268
 Red. masses --      2.5843                 5.1057                 1.8681
 Frc consts  --      0.9750                 1.9664                 0.7320
 IR Inten    --      6.5443                10.0783                32.7004

                     55                     56                     57
                      A                      A                      A
 Frequencies --    837.3593               871.1230               881.3527
 Red. masses --      3.9555                 2.4433                 2.0947
 Frc consts  --      1.6341                 1.0924                 0.9587
 IR Inten    --      3.8575                 0.0863                38.4430

                     58                     59                     60
                      A                      A                      A
 Frequencies --    892.1355               915.2275               925.6426
 Red. masses --      1.7536                 2.6647                 1.3654
 Frc consts  --      0.8223                 1.3151                 0.6893
 IR Inten    --     12.4915                16.7349                 0.7552

                     61                     62                     63
                      A                      A                      A
 Frequencies --    929.1747               930.9660               953.2622
 Red. masses --      1.5472                 1.5785                 1.2027
 Frc consts  --      0.7870                 0.8061                 0.6439
 IR Inten    --      1.6958                 1.4089                 0.1478

                     64                     65                     66
                      A                      A                      A
 Frequencies --    962.8333               983.8914              1005.1524
 Red. masses --      4.6241                 1.4346                 3.5950
 Frc consts  --      2.5257                 0.8182                 2.1400
 IR Inten    --      3.3486                 2.9822                27.9332

                     67                     68                     69
                      A                      A                      A
 Frequencies --   1017.3210              1037.4687              1040.0629
 Red. masses --      1.3169                 1.9486                 1.4232
 Frc consts  --      0.8030                 1.2357                 0.9070
 IR Inten    --      0.1462                 6.7322                 0.7742

                     70                     71                     72
                      A                      A                      A
 Frequencies --   1047.7049              1077.6716              1098.0781
 Red. masses --      1.5431                 4.1305                 2.5471
 Frc consts  --      0.9980                 2.8263                 1.8095
 IR Inten    --      3.7072                29.0499                 5.3367

                     73                     74                     75
                      A                      A                      A
 Frequencies --   1115.7911              1123.9338              1157.8390
 Red. masses --      4.3154                 1.8901                 1.2148
 Frc consts  --      3.1654                 1.4067                 0.9595
 IR Inten    --      2.3035                85.1225                16.4921

                     76                     77                     78
                      A                      A                      A
 Frequencies --   1164.2575              1168.2386              1169.5507
 Red. masses --      1.2827                 1.2900                 1.2898
 Frc consts  --      1.0244                 1.0373                 1.0395
 IR Inten    --     24.1440                 1.0392                 1.2108

                     79                     80                     81
                      A                      A                      A
 Frequencies --   1192.7549              1196.2393              1199.3702
 Red. masses --      1.9720                 1.4874                 1.4033
 Frc consts  --      1.6529                 1.2541                 1.1893
 IR Inten    --     26.3433                15.9507                 1.7903

                     82                     83                     84
                      A                      A                      A
 Frequencies --   1201.0065              1219.0425              1240.1981
 Red. masses --      2.4265                 1.9876                 2.6592
 Frc consts  --      2.0622                 1.7402                 2.4099
 IR Inten    --    173.3199                32.8084                17.5391

                     85                     86                     87
                      A                      A                      A
 Frequencies --   1265.2446              1276.1788              1284.8715
 Red. masses --      2.2696                 2.5382                 2.4656
 Frc consts  --      2.1406                 2.4356                 2.3983
 IR Inten    --     64.5036                 9.3744                23.8527

                     88                     89                     90
                      A                      A                      A
 Frequencies --   1292.3130              1294.2019              1305.6018
 Red. masses --      2.0763                 2.4071                 1.9371
 Frc consts  --      2.0430                 2.3754                 1.9455
 IR Inten    --    125.1229               126.2118                30.6002

                     91                     92                     93
                      A                      A                      A
 Frequencies --   1312.2380              1321.4879              1341.7939
 Red. masses --      2.0063                 3.1341                 6.2142
 Frc consts  --      2.0355                 3.2247                 6.5919
 IR Inten    --    165.9465               191.8343               210.3330

                     94                     95                     96
                      A                      A                      A
 Frequencies --   1368.9824              1376.4775              1386.5560
 Red. masses --      5.5536                 4.9724                 1.3828
 Frc consts  --      6.1323                 5.5508                 1.5664
 IR Inten    --     88.5353                84.0779                28.0542

                     97                     98                     99
                      A                      A                      A
 Frequencies --   1389.5171              1408.2989              1426.0661
 Red. masses --      1.4563                 1.2645                 4.6496
 Frc consts  --      1.6566                 1.4776                 5.5712
 IR Inten    --     27.9982                21.2679                99.3532

                    100                    101                    102
                      A                      A                      A
 Frequencies --   1448.5716              1455.2386              1465.4136
 Red. masses --      1.0445                 1.5446                 1.0515
 Frc consts  --      1.2913                 1.9272                 1.3304
 IR Inten    --      0.5285                21.1982                 1.2620

                    103                    104                    105
                      A                      A                      A
 Frequencies --   1468.1991              1468.6482              1477.9852
 Red. masses --      1.0602                 1.2228                 1.0826
 Frc consts  --      1.3465                 1.5539                 1.3934
 IR Inten    --      0.8895                28.4993                10.2086

                    106                    107                    108
                      A                      A                      A
 Frequencies --   1482.5151              1483.1331              1483.4060
 Red. masses --      1.0677                 1.0420                 1.0492
 Frc consts  --      1.3826                 1.3504                 1.3603
 IR Inten    --      2.8031                10.6098                 6.0669

                    109                    110                    111
                      A                      A                      A
 Frequencies --   1489.7154              1494.9886              1500.0309
 Red. masses --      1.2951                 1.0635                 1.8232
 Frc consts  --      1.6934                 1.4005                 2.4170
 IR Inten    --     28.8897                51.8430               104.2435

                    112                    113                    114
                      A                      A                      A
 Frequencies --   1502.2379              1502.8223              1506.9840
 Red. masses --      2.3386                 1.1389                 2.9412
 Frc consts  --      3.1095                 1.5154                 3.9354
 IR Inten    --      8.7920                 9.9605                 5.9625

                    115                    116                    117
                      A                      A                      A
 Frequencies --   1571.2270              1653.6847              1665.8492
 Red. masses --      3.7093                 7.9330                 7.7529
 Frc consts  --      5.3954                12.7818                12.6761
 IR Inten    --    562.6150                47.3714                 1.6249

                    118                    119                    120
                      A                      A                      A
 Frequencies --   1672.7131              1679.7962              1810.0218
 Red. masses --      7.0363                 7.5493                12.7283
 Frc consts  --     11.5995                12.5508                24.5690
 IR Inten    --     27.9812                10.0640               462.1308

                    121                    122                    123
                      A                      A                      A
 Frequencies --   1829.1373              3033.5988              3038.3511
 Red. masses --     11.9699                 1.0361                 1.0370
 Frc consts  --     23.5958                 5.6180                 5.6403
 IR Inten    --    201.5598                76.0250                32.2443

                    124                    125                    126
                      A                      A                      A
 Frequencies --   3060.6018              3062.4013              3067.2877
 Red. masses --      1.0354                 1.0362                 1.0376
 Frc consts  --      5.7143                 5.7255                 5.7514
 IR Inten    --      9.9213                13.7247                21.3281

                    127                    128                    129
                      A                      A                      A
 Frequencies --   3096.5654              3096.7358              3106.0136
 Red. masses --      1.1050                 1.0843                 1.1037
 Frc consts  --      6.2426                 6.1264                 6.2736
 IR Inten    --     40.0983                 7.4811                34.9240

                    130                    131                    132
                      A                      A                      A
 Frequencies --   3137.1996              3138.8474              3144.8204
 Red. masses --      1.1021                 1.1020                 1.1023
 Frc consts  --      6.3905                 6.3969                 6.4230
 IR Inten    --      2.5686                18.4062                29.8226

                    133                    134                    135
                      A                      A                      A
 Frequencies --   3151.7191              3164.9470              3176.1349
 Red. masses --      1.1027                 1.1013                 1.1010
 Frc consts  --      6.4536                 6.4997                 6.5437
 IR Inten    --     29.0536                 6.4270                 6.7625

                    136                    137                    138
                      A                      A                      A
 Frequencies --   3181.6541              3184.0792              3205.7099
 Red. masses --      1.0985                 1.0995                 1.0864
 Frc consts  --      6.5516                 6.5675                 6.5780
 IR Inten    --     24.5410                27.7911                 0.2397

                    139                    140                    141
                      A                      A                      A
 Frequencies --   3215.2902              3220.8902              3224.8272
 Red. masses --      1.0902                 1.0885                 1.0943
 Frc consts  --      6.6407                 6.6533                 6.7050
 IR Inten    --      4.9634                10.1080                 9.9325

                    142                    143                    144
                      A                      A                      A
 Frequencies --   3233.4617              3240.5114              3271.2727
 Red. masses --      1.0977                 1.0927                 1.0902
 Frc consts  --      6.7617                 6.7607                 6.8736
 IR Inten    --     17.9208                 5.3024                 4.9315

 - Thermochemistry -
 -------------------
 Temperature   298.150 Kelvin.  Pressure   1.00000 Atm.
 Atom     1 has atomic number  6 and mass  12.00000

 Molecular mass:   369.15762 amu.
 Principal axes and moments of inertia in atomic units:
                           1         2         3
     Eigenvalues --  5780.15700********************
           X            0.99999   0.00207  -0.00458
           Y           -0.00203   0.99996   0.00918
           Z            0.00460  -0.00917   0.99995
 This molecule is an asymmetric top.
 Rotational symmetry number  1.
 Warning -- assumption of classical behavior for rotation
           may cause significant error
 Rotational temperatures (Kelvin)      0.01498     0.00658     0.00583
 Rotational constants (GHZ):           0.31223     0.13721     0.12144
 Zero-point vibrational energy    1070680.9 (Joules/Mol)
                                  255.89889 (Kcal/Mol)
 Warning -- explicit consideration of  42 degrees of freedom as
           vibrations may cause significant error
 Vibrational temperatures:     41.22    52.58    55.75    68.64    72.35
          (Kelvin)            110.21   125.83   145.47   149.81   179.29
                              198.95   217.09   235.37   264.53   286.56
                              302.87   311.68   330.13   351.87   369.08
                              388.41   412.23   420.57   431.57   450.17
                              458.25   505.44   540.04   547.41   553.25
                              590.93   605.28   623.66   645.92   655.59
                              675.81   710.85   719.64   762.72   818.43
                              861.96   877.82   918.20   952.63   980.56
                             1011.26  1057.26  1069.93  1096.79  1128.99
                             1146.89  1151.30  1163.27  1173.36  1204.77
                             1253.35  1268.07  1283.58  1316.81  1331.79
                             1336.88  1339.45  1371.53  1385.30  1415.60
                             1446.19  1463.70  1492.69  1496.42  1507.41
                             1550.53  1579.89  1605.37  1617.09  1665.87
                             1675.11  1680.83  1682.72  1716.11  1721.12
                             1725.63  1727.98  1753.93  1784.37  1820.40
                             1836.14  1848.64  1859.35  1862.07  1878.47
                             1888.02  1901.33  1930.54  1969.66  1980.44
                             1994.94  1999.21  2026.23  2051.79  2084.17
                             2093.76  2108.40  2112.41  2113.06  2126.49
                             2133.01  2133.90  2134.29  2143.37  2150.96
                             2158.21  2161.39  2162.23  2168.21  2260.65
                             2379.28  2396.79  2406.66  2416.85  2604.22
                             2631.72  4364.67  4371.51  4403.52  4406.11
                             4413.14  4455.27  4455.51  4468.86  4513.73
                             4516.10  4524.70  4534.62  4553.65  4569.75
                             4577.69  4581.18  4612.30  4626.09  4634.14
                             4639.81  4652.23  4662.37  4706.63

 Zero-point correction=                           0.407801 (Hartree/Particle)
 Thermal correction to Energy=                    0.433343
 Thermal correction to Enthalpy=                  0.434287
 Thermal correction to Gibbs Free Energy=         0.352463
 Sum of electronic and zero-point Energies=          -1243.455725
 Sum of electronic and thermal Energies=             -1243.430184
 Sum of electronic and thermal Enthalpies=           -1243.429239
 Sum of electronic and thermal Free Energies=        -1243.511063

                     E (Thermal)             CV                S
                      KCal/Mol        Cal/Mol-Kelvin    Cal/Mol-Kelvin
 Total                  271.927             98.014            172.212
 Electronic               0.000              0.000              0.000
 Translational            0.889              2.981             43.611
 Rotational               0.889              2.981             35.378
 Vibrational            270.149             92.053             93.222
 Vibration     1          0.593              1.984              5.921
 Vibration     2          0.594              1.982              5.438
 Vibration     3          0.594              1.981              5.322
 Vibration     4          0.595              1.978              4.910
 Vibration     5          0.595              1.977              4.806
 Vibration     6          0.599              1.965              3.976
 Vibration     7          0.601              1.958              3.716
 Vibration     8          0.604              1.948              3.433
 Vibration     9          0.605              1.946              3.376
 Vibration    10          0.610              1.928              3.028
 Vibration    11          0.614              1.915              2.828
 Vibration    12          0.618              1.902              2.661
 Vibration    13          0.623              1.887              2.508
 Vibration    14          0.631              1.862              2.289
 Vibration    15          0.637              1.841              2.141
 Vibration    16          0.643              1.825              2.039
 Vibration    17          0.645              1.816              1.987
 Vibration    18          0.652              1.796              1.883
 Vibration    19          0.660              1.772              1.769
 Vibration    20          0.666              1.752              1.685
 Vibration    21          0.674              1.728              1.596
 Vibration    22          0.684              1.699              1.494
 Vibration    23          0.688              1.688              1.461
 Vibration    24          0.692              1.674              1.417
 Vibration    25          0.701              1.649              1.347
 Vibration    26          0.705              1.638              1.318
 Vibration    27          0.728              1.573              1.160
 Vibration    28          0.746              1.523              1.058
 Vibration    29          0.750              1.512              1.037
 Vibration    30          0.753              1.503              1.021
 Vibration    31          0.775              1.447              0.924
 Vibration    32          0.783              1.425              0.890
 Vibration    33          0.794              1.397              0.847
 Vibration    34          0.808              1.363              0.799
 Vibration    35          0.814              1.348              0.779
 Vibration    36          0.827              1.317              0.738
 Vibration    37          0.850              1.263              0.673
 Vibration    38          0.856              1.250              0.658
 Vibration    39          0.885              1.183              0.587
 Vibration    40          0.925              1.099              0.506
 Vibration    41          0.957              1.034              0.451
 Vibration    42          0.969              1.010              0.433

                           ! Non-Optimized Parameters !
 Normal termination of Gaussian 16 at Tue Dec  5 02:23:42 2023.
